TITLE = "title:   Water into Jeffrey Fracture - perm 8.33e-10, dp 1.00e+00"
FILETYPE = "GRID"
VARIABLES = "X coordinate (m)" "Y coordinate (m)" "Z coordinate (m)"
ZONE T = "GRID", N =      495, E =      868, DATAPACKING = POINT, ZONETYPE = FEBRICK, STRANDID = 0, SOLUTIONTIME = 0.
-0.100000000E+02  -0.500000000E+01   0.000000000E+00
-0.100000000E+02  -0.448053087E+01   0.000000000E+00
-0.100000000E+02  -0.399517472E+01   0.000000000E+00
-0.100000000E+02  -0.347509157E+01   0.000000000E+00
-0.100000000E+02  -0.300187361E+01   0.000000000E+00
-0.100000000E+02  -0.254176521E+01   0.000000000E+00
-0.100000000E+02  -0.208234032E+01   0.000000000E+00
-0.100000000E+02  -0.157324447E+01   0.000000000E+00
-0.100000000E+02  -0.105840990E+01   0.000000000E+00
-0.100000000E+02  -0.536615900E+00   0.000000000E+00
-0.100000000E+02  -0.455916768E-01   0.000000000E+00
-0.100000000E+02   0.433174169E+00   0.000000000E+00
-0.100000000E+02   0.890192693E+00   0.000000000E+00
-0.100000000E+02   0.143561267E+01   0.000000000E+00
-0.100000000E+02   0.191244877E+01   0.000000000E+00
-0.100000000E+02   0.244911842E+01   0.000000000E+00
-0.100000000E+02   0.290343707E+01   0.000000000E+00
-0.100000000E+02   0.342994490E+01   0.000000000E+00
-0.100000000E+02   0.396790669E+01   0.000000000E+00
-0.100000000E+02   0.448182337E+01   0.000000000E+00
-0.100000000E+02   0.500000000E+01   0.000000000E+00
-0.953661234E+01  -0.500000000E+01   0.000000000E+00
-0.937928162E+01   0.411013745E+01   0.000000000E+00
-0.936817555E+01   0.150836686E+01   0.000000000E+00
-0.932003545E+01  -0.429631389E+01   0.000000000E+00
-0.926004885E+01   0.215423875E+01   0.000000000E+00
-0.922735053E+01  -0.205745683E+01   0.000000000E+00
-0.922642033E+01   0.278337449E+00   0.000000000E+00
-0.921538199E+01  -0.357063818E+01   0.000000000E+00
-0.919469042E+01  -0.285057612E+01   0.000000000E+00
-0.917909547E+01   0.289630720E+01   0.000000000E+00
-0.917737247E+01   0.500000000E+01   0.000000000E+00
-0.914828839E+01  -0.138756169E+01   0.000000000E+00
-0.914795525E+01   0.996799958E+00   0.000000000E+00
-0.913431139E+01  -0.588711649E+00   0.000000000E+00
-0.907297163E+01  -0.500000000E+01   0.000000000E+00
-0.899298706E+01   0.349286120E+01   0.000000000E+00
-0.878612309E+01   0.426705285E+01   0.000000000E+00
-0.863069956E+01   0.500000000E+01   0.000000000E+00
-0.861926474E+01  -0.419484182E+01   0.000000000E+00
-0.861283158E+01   0.238185183E+01   0.000000000E+00
-0.857785014E+01  -0.500000000E+01   0.000000000E+00
-0.857233396E+01   0.163442707E+01   0.000000000E+00
-0.856384413E+01  -0.252677928E+01   0.000000000E+00
-0.854986665E+01   0.824246759E+00   0.000000000E+00
-0.853193094E+01   0.547138025E-01   0.000000000E+00
-0.846136461E+01  -0.339303853E+01   0.000000000E+00
-0.843524374E+01  -0.181926632E+01   0.000000000E+00
-0.836299753E+01  -0.112789917E+01   0.000000000E+00
-0.825590338E+01   0.374226747E+01   0.000000000E+00
-0.824940923E+01  -0.529581648E+00   0.000000000E+00
-0.823224846E+01   0.297496685E+01   0.000000000E+00
-0.814129051E+01   0.441801377E+01   0.000000000E+00
-0.813331626E+01   0.500000000E+01   0.000000000E+00
-0.812574772E+01  -0.500000000E+01   0.000000000E+00
-0.796071164E+01   0.566595981E+00   0.000000000E+00
-0.795380394E+01  -0.295859529E+01   0.000000000E+00
-0.792528412E+01   0.219164616E+01   0.000000000E+00
-0.791923381E+01  -0.419381227E+01   0.000000000E+00
-0.788947389E+01   0.132122840E+01   0.000000000E+00
-0.781321446E+01  -0.228896038E+01   0.000000000E+00
-0.769393066E+01  -0.595753699E-01   0.000000000E+00
-0.766357994E+01  -0.158309043E+01   0.000000000E+00
-0.764398909E+01   0.348916507E+01   0.000000000E+00
-0.764065791E+01  -0.500000000E+01   0.000000000E+00
-0.760599485E+01   0.500000000E+01   0.000000000E+00
-0.758703043E+01  -0.359791387E+01   0.000000000E+00
-0.753415372E+01   0.420726262E+01   0.000000000E+00
-0.751398149E+01  -0.866332166E+00   0.000000000E+00
-0.728970680E+01   0.292228283E+01   0.000000000E+00
-0.728196226E+01   0.226935762E+01   0.000000000E+00
-0.727830157E+01  -0.289271691E+01   0.000000000E+00
-0.725702457E+01   0.710192044E+00   0.000000000E+00
-0.725190720E+01   0.160609129E+01   0.000000000E+00
-0.714192548E+01   0.500000000E+01   0.000000000E+00
-0.710452444E+01  -0.425162235E+01   0.000000000E+00
-0.709952210E+01  -0.500000000E+01   0.000000000E+00
-0.708613369E+01  -0.215045894E+01   0.000000000E+00
-0.701807887E+01  -0.197833574E+00   0.000000000E+00
-0.695268220E+01   0.364493090E+01   0.000000000E+00
-0.691091058E+01   0.435916049E+01   0.000000000E+00
-0.687951232E+01  -0.146376260E+01   0.000000000E+00
-0.681960822E+01  -0.355170839E+01   0.000000000E+00
-0.671869479E+01  -0.866167241E+00   0.000000000E+00
-0.667307975E+01   0.234663822E+01   0.000000000E+00
-0.666484039E+01   0.500000000E+01   0.000000000E+00
-0.662179290E+01  -0.276869541E+01   0.000000000E+00
-0.661645229E+01   0.145853032E+01   0.000000000E+00
-0.661198506E+01   0.781314134E+00   0.000000000E+00
-0.660244689E+01  -0.500000000E+01   0.000000000E+00
-0.648392850E+01   0.170448062E+00   0.000000000E+00
-0.638293693E+01   0.318838745E+01   0.000000000E+00
-0.633560676E+01  -0.200370997E+01   0.000000000E+00
-0.631604731E+01   0.408997827E+01   0.000000000E+00
-0.628160941E+01  -0.420306075E+01   0.000000000E+00
-0.618558755E+01  -0.491219734E+00   0.000000000E+00
-0.614500439E+01  -0.500000000E+01   0.000000000E+00
-0.613677671E+01   0.500000000E+01   0.000000000E+00
-0.613097063E+01  -0.340463113E+01   0.000000000E+00
-0.607800645E+01   0.192367554E+01   0.000000000E+00
-0.605690794E+01   0.787233017E+00   0.000000000E+00
-0.600660312E+01  -0.264775860E+01   0.000000000E+00
-0.600432608E+01  -0.132510575E+01   0.000000000E+00
-0.598989976E+01   0.249531798E+01   0.000000000E+00
-0.577309731E+01   0.436262191E+01   0.000000000E+00
-0.574598668E+01   0.139235184E+01   0.000000000E+00
-0.567917138E+01   0.885988522E-01   0.000000000E+00
-0.563801967E+01  -0.500000000E+01   0.000000000E+00
-0.563077629E+01   0.360303065E+01   0.000000000E+00
-0.562627766E+01  -0.396202398E+01   0.000000000E+00
-0.561390709E+01   0.500000000E+01   0.000000000E+00
-0.556755390E+01   0.284794102E+01   0.000000000E+00
-0.552395005E+01  -0.210634326E+01   0.000000000E+00
-0.548897599E+01  -0.302070384E+01   0.000000000E+00
-0.545908669E+01  -0.690595053E+00   0.000000000E+00
-0.544040527E+01   0.799520326E+00   0.000000000E+00
-0.530709717E+01   0.197724362E+01   0.000000000E+00
-0.521713931E+01  -0.133007494E+01   0.000000000E+00
-0.514558876E+01   0.430155073E+01   0.000000000E+00
-0.512449655E+01  -0.500000000E+01   0.000000000E+00
-0.511446642E+01   0.500000000E+01   0.000000000E+00
-0.506184681E+01  -0.346921416E+01   0.000000000E+00
-0.499669442E+01  -0.168144086E+00   0.000000000E+00
-0.499231658E+01  -0.422173605E+01   0.000000000E+00
-0.495936949E+01   0.309786194E+01   0.000000000E+00
-0.493204808E+01   0.241808967E+01   0.000000000E+00
-0.493069742E+01   0.127828305E+01   0.000000000E+00
-0.488277013E+01   0.514514833E+00   0.000000000E+00
-0.485259882E+01  -0.194664741E+01   0.000000000E+00
-0.479827208E+01   0.373657339E+01   0.000000000E+00
-0.479099146E+01  -0.268545614E+01   0.000000000E+00
-0.466555123E+01  -0.500000000E+01   0.000000000E+00
-0.465016420E+01   0.500000000E+01   0.000000000E+00
-0.457041647E+01  -0.764415518E+00   0.000000000E+00
-0.447091529E+01  -0.142428591E+01   0.000000000E+00
-0.445316254E+01  -0.348962909E+01   0.000000000E+00
-0.445180832E+01   0.435243334E+01   0.000000000E+00
-0.442394917E+01   0.174197653E+01   0.000000000E+00
-0.435056014E+01   0.682663300E-01   0.000000000E+00
-0.434713421E+01   0.252501719E+01   0.000000000E+00
-0.431113413E+01   0.322220737E+01   0.000000000E+00
-0.427272773E+01  -0.424177803E+01   0.000000000E+00
-0.419902661E+01   0.500000000E+01   0.000000000E+00
-0.417056004E+01   0.910220427E+00   0.000000000E+00
-0.416301497E+01  -0.206173692E+01   0.000000000E+00
-0.415993334E+01  -0.500000000E+01   0.000000000E+00
-0.403584860E+01   0.386920168E+01   0.000000000E+00
-0.402214269E+01  -0.281828486E+01   0.000000000E+00
-0.391521864E+01  -0.468252408E+00   0.000000000E+00
-0.376178258E+01  -0.360507890E+01   0.000000000E+00
-0.374788631E+01   0.278886625E+01   0.000000000E+00
-0.374685037E+01   0.442245913E+01   0.000000000E+00
-0.371686369E+01  -0.124179342E+01   0.000000000E+00
-0.371290379E+01   0.500000000E+01   0.000000000E+00
-0.370710405E+01   0.212464195E+01   0.000000000E+00
-0.370146770E+01   0.343437653E+01   0.000000000E+00
-0.369732316E+01   0.237742642E+00   0.000000000E+00
-0.364189278E+01   0.149277303E+01   0.000000000E+00
-0.363096814E+01  -0.500000000E+01   0.000000000E+00
-0.354336015E+01  -0.429796042E+01   0.000000000E+00
-0.350211398E+01  -0.213819438E+01   0.000000000E+00
-0.334132272E+01  -0.303810677E+01   0.000000000E+00
-0.330720249E+01   0.859073703E+00   0.000000000E+00
-0.326438039E+01  -0.457734739E+00   0.000000000E+00
-0.322684946E+01   0.321827598E+01   0.000000000E+00
-0.319559180E+01   0.500000000E+01   0.000000000E+00
-0.318664192E+01   0.402056706E+01   0.000000000E+00
-0.315880477E+01  -0.500000000E+01   0.000000000E+00
-0.307795076E+01   0.260737872E+01   0.000000000E+00
-0.304268106E+01   0.192765175E+00   0.000000000E+00
-0.299707838E+01  -0.150667539E+01   0.000000000E+00
-0.297424989E+01  -0.376531448E+01   0.000000000E+00
-0.291851108E+01   0.202275944E+01   0.000000000E+00
-0.291029943E+01  -0.262282407E+01   0.000000000E+00
-0.289877629E+01   0.149132435E+01   0.000000000E+00
-0.282737765E+01  -0.922847954E+00   0.000000000E+00
-0.275252825E+01  -0.437873147E+01   0.000000000E+00
-0.268381258E+01  -0.200205625E+01   0.000000000E+00
-0.266693792E+01  -0.500000000E+01   0.000000000E+00
-0.265590148E+01   0.500000000E+01   0.000000000E+00
-0.265262284E+01   0.443347278E+01   0.000000000E+00
-0.265166493E+01   0.324805665E+01   0.000000000E+00
-0.256300111E+01  -0.332169992E+01   0.000000000E+00
-0.253383048E+01   0.114813672E+01   0.000000000E+00
-0.251760724E+01   0.543699614E+00   0.000000000E+00
-0.247490963E+01  -0.220285985E+00   0.000000000E+00
-0.247330063E+01   0.383047208E+01   0.000000000E+00
-0.234218575E+01   0.260020418E+01   0.000000000E+00
-0.228700428E+01  -0.264958073E+01   0.000000000E+00
-0.219196013E+01  -0.500000000E+01   0.000000000E+00
-0.212843366E+01   0.500000000E+01   0.000000000E+00
-0.211644644E+01  -0.140348360E+01   0.000000000E+00
-0.208197007E+01  -0.798721117E+00   0.000000000E+00
-0.205510176E+01  -0.411897509E+01   0.000000000E+00
-0.205494450E+01   0.184575338E+01   0.000000000E+00
-0.201870236E+01   0.428475564E+01   0.000000000E+00
-0.200090941E+01  -0.203978411E+01   0.000000000E+00
-0.193605594E+01   0.103899519E+01   0.000000000E+00
-0.189690385E+01   0.338300341E+01   0.000000000E+00
-0.189109014E+01   0.289339895E+00   0.000000000E+00
-0.188945024E+01  -0.326163153E+01   0.000000000E+00
-0.171277366E+01  -0.500000000E+01   0.000000000E+00
-0.168526518E+01   0.257378688E+01   0.000000000E+00
-0.168013485E+01  -0.337718903E+00   0.000000000E+00
-0.161483056E+01   0.500000000E+01   0.000000000E+00
-0.161256749E+01  -0.255121664E+01   0.000000000E+00
-0.153440311E+01   0.417680265E+01   0.000000000E+00
-0.140148576E+01  -0.371045898E+01   0.000000000E+00
-0.136724995E+01   0.723075027E+00   0.000000000E+00
-0.131832194E+01  -0.108917172E+01   0.000000000E+00
-0.130627665E+01   0.134721535E+01   0.000000000E+00
-0.128044539E+01  -0.179845953E+01   0.000000000E+00
-0.127732534E+01   0.316337801E+01   0.000000000E+00
-0.124011110E+01   0.200442822E+01   0.000000000E+00
-0.118245003E+01  -0.500000000E+01   0.000000000E+00
-0.115797642E+01  -0.431012563E+01   0.000000000E+00
-0.114698121E+01  -0.309946845E+01   0.000000000E+00
-0.113520263E+01   0.158181473E+00   0.000000000E+00
-0.111887494E+01   0.500000000E+01   0.000000000E+00
-0.109589147E+01   0.378805681E+01   0.000000000E+00
-0.101666629E+01  -0.445014451E+00   0.000000000E+00
-0.998605877E+00   0.443033342E+01   0.000000000E+00
-0.971363997E+00  -0.248432720E+01   0.000000000E+00
-0.937194971E+00   0.266586149E+01   0.000000000E+00
-0.684990651E+00  -0.500000000E+01   0.000000000E+00
-0.676607917E+00  -0.365745297E+01   0.000000000E+00
-0.642312083E+00   0.339669782E+01   0.000000000E+00
-0.635913053E+00   0.698409089E+00   0.000000000E+00
-0.634032816E+00   0.144956191E+01   0.000000000E+00
-0.596799250E+00   0.500000000E+01   0.000000000E+00
-0.592220305E+00  -0.148415216E+01   0.000000000E+00
-0.524769473E+00   0.212523328E+01   0.000000000E+00
-0.501742351E+00  -0.785928815E+00   0.000000000E+00
-0.423393255E+00  -0.218263594E+01   0.000000000E+00
-0.406784244E+00  -0.866860208E-01   0.000000000E+00
-0.395195633E+00  -0.294122101E+01   0.000000000E+00
-0.311048759E+00   0.418406345E+01   0.000000000E+00
-0.285473180E+00  -0.425643894E+01   0.000000000E+00
-0.273058651E+00   0.283934643E+01   0.000000000E+00
-0.207996700E+00  -0.500000000E+01   0.000000000E+00
-0.779826340E-01   0.500000000E+01   0.000000000E+00
-0.346364682E-01   0.345777714E+01   0.000000000E+00
 0.000000000E+00  -0.100000000E+01   0.000000000E+00
 0.000000000E+00  -0.500000000E+00   0.000000000E+00
 0.000000000E+00   0.000000000E+00   0.000000000E+00
 0.000000000E+00   0.500000000E+00   0.000000000E+00
 0.000000000E+00   0.100000000E+01   0.000000000E+00
 0.605317611E-01  -0.351191447E+01   0.000000000E+00
 0.622310306E-01   0.162933782E+01   0.000000000E+00
 0.790398902E-01   0.235572290E+01   0.000000000E+00
 0.145347151E+00  -0.184403664E+01   0.000000000E+00
 0.270607481E+00  -0.500000000E+01   0.000000000E+00
 0.350939566E+00  -0.266834692E+01   0.000000000E+00
 0.402216120E+00   0.440713146E+01   0.000000000E+00
 0.419900747E+00   0.856982565E+00   0.000000000E+00
 0.429225206E+00   0.500000000E+01   0.000000000E+00
 0.471470797E+00  -0.422103806E+01   0.000000000E+00
 0.475066622E+00   0.377392335E+01   0.000000000E+00
 0.501484371E+00   0.298418155E+01   0.000000000E+00
 0.549620831E+00  -0.134949972E+01   0.000000000E+00
 0.640418628E+00   0.220292145E+01   0.000000000E+00
 0.740639056E+00  -0.347324185E+01   0.000000000E+00
 0.777141808E+00   0.497476764E-01   0.000000000E+00
 0.786799673E+00   0.150056274E+01   0.000000000E+00
 0.795506559E+00  -0.500000000E+01   0.000000000E+00
 0.874215794E+00  -0.606332527E+00   0.000000000E+00
 0.938931042E+00   0.500000000E+01   0.000000000E+00
 0.955513303E+00  -0.208971058E+01   0.000000000E+00
 0.972247994E+00   0.839177059E+00   0.000000000E+00
 0.107006393E+01   0.422087844E+01   0.000000000E+00
 0.110433462E+01   0.343100820E+01   0.000000000E+00
 0.114243660E+01  -0.128810477E+01   0.000000000E+00
 0.117393949E+01   0.270478009E+01   0.000000000E+00
 0.117809180E+01  -0.281979074E+01   0.000000000E+00
 0.121796228E+01  -0.424490748E+01   0.000000000E+00
 0.128524323E+01   0.198800479E+01   0.000000000E+00
 0.129131901E+01  -0.500000000E+01   0.000000000E+00
 0.138601465E+01   0.493459121E+00   0.000000000E+00
 0.141292699E+01  -0.359133412E+01   0.000000000E+00
 0.144305190E+01   0.500000000E+01   0.000000000E+00
 0.153839384E+01   0.125024613E+01   0.000000000E+00
 0.162206213E+01  -0.163717717E+01   0.000000000E+00
 0.164714834E+01  -0.152995223E+00   0.000000000E+00
 0.167968599E+01   0.442012791E+01   0.000000000E+00
 0.170773190E+01   0.376275784E+01   0.000000000E+00
 0.171282033E+01  -0.856959342E+00   0.000000000E+00
 0.177193768E+01  -0.500000000E+01   0.000000000E+00
 0.180324360E+01   0.307075300E+01   0.000000000E+00
 0.183078505E+01  -0.232356939E+01   0.000000000E+00
 0.187723716E+01   0.242575708E+01   0.000000000E+00
 0.189621653E+01  -0.322991497E+01   0.000000000E+00
 0.191693822E+01   0.174984971E+01   0.000000000E+00
 0.193256183E+01   0.614728496E+00   0.000000000E+00
 0.195914713E+01   0.500000000E+01   0.000000000E+00
 0.199212301E+01  -0.414791219E+01   0.000000000E+00
 0.225411359E+01  -0.500000000E+01   0.000000000E+00
 0.226146601E+01   0.424639424E+01   0.000000000E+00
 0.229217411E+01  -0.145085055E+01   0.000000000E+00
 0.235258613E+01  -0.483221188E+00   0.000000000E+00
 0.236714613E+01   0.343728413E+01   0.000000000E+00
 0.237891229E+01   0.114894663E+01   0.000000000E+00
 0.240540129E+01  -0.288550743E+01   0.000000000E+00
 0.245562382E+01   0.290842673E+00   0.000000000E+00
 0.249660250E+01   0.198230278E+01   0.000000000E+00
 0.250529032E+01   0.500000000E+01   0.000000000E+00
 0.257091816E+01   0.271941217E+01   0.000000000E+00
 0.259295234E+01  -0.361825667E+01   0.000000000E+00
 0.263499927E+01  -0.226725730E+01   0.000000000E+00
 0.270256247E+01  -0.431638451E+01   0.000000000E+00
 0.271543100E+01  -0.500000000E+01   0.000000000E+00
 0.282153225E+01   0.383706684E+01   0.000000000E+00
 0.286234418E+01  -0.847248650E+00   0.000000000E+00
 0.290046854E+01   0.440178294E+01   0.000000000E+00
 0.297989559E+01   0.500000000E+01   0.000000000E+00
 0.298120846E+01  -0.169904386E+01   0.000000000E+00
 0.299739390E+01   0.148621531E+01   0.000000000E+00
 0.307952323E+01  -0.307964465E+01   0.000000000E+00
 0.308826653E+01   0.812628664E+00   0.000000000E+00
 0.308945857E+01  -0.301854809E-02   0.000000000E+00
 0.314672665E+01   0.327150471E+01   0.000000000E+00
 0.317736632E+01  -0.500000000E+01   0.000000000E+00
 0.319865189E+01   0.207882005E+01   0.000000000E+00
 0.330940611E+01   0.263705039E+01   0.000000000E+00
 0.335470690E+01  -0.399659937E+01   0.000000000E+00
 0.338102591E+01  -0.123317754E+01   0.000000000E+00
 0.340110357E+01  -0.241755381E+01   0.000000000E+00
 0.346907293E+01   0.391648467E+01   0.000000000E+00
 0.347845133E+01   0.500000000E+01   0.000000000E+00
 0.351785545E+01   0.449888743E+01   0.000000000E+00
 0.357621223E+01  -0.589590073E+00   0.000000000E+00
 0.363427821E+01  -0.500000000E+01   0.000000000E+00
 0.372521585E+01  -0.186165018E+01   0.000000000E+00
 0.372924058E+01   0.631983996E+00   0.000000000E+00
 0.376233974E+01  -0.309263167E+01   0.000000000E+00
 0.376779735E+01   0.145179073E+01   0.000000000E+00
 0.380224804E+01   0.291534612E+01   0.000000000E+00
 0.384752398E+01  -0.712096790E-01   0.000000000E+00
 0.392715012E+01  -0.117912212E+01   0.000000000E+00
 0.393252317E+01   0.222770472E+01   0.000000000E+00
 0.393868751E+01   0.350575470E+01   0.000000000E+00
 0.398490727E+01   0.500000000E+01   0.000000000E+00
 0.403773794E+01  -0.430052838E+01   0.000000000E+00
 0.407131782E+01  -0.364693661E+01   0.000000000E+00
 0.414824927E+01   0.427884850E+01   0.000000000E+00
 0.415375431E+01  -0.500000000E+01   0.000000000E+00
 0.426243086E+01  -0.247414451E+01   0.000000000E+00
 0.435450004E+01  -0.160825593E+01   0.000000000E+00
 0.437333809E+01   0.225841298E+00   0.000000000E+00
 0.437938870E+01   0.103228473E+01   0.000000000E+00
 0.442630458E+01  -0.691728895E+00   0.000000000E+00
 0.448921967E+01   0.283016582E+01   0.000000000E+00
 0.449680805E+01   0.366569177E+01   0.000000000E+00
 0.452128118E+01   0.191571619E+01   0.000000000E+00
 0.453359687E+01   0.500000000E+01   0.000000000E+00
 0.460117829E+01  -0.312806059E+01   0.000000000E+00
 0.466853398E+01  -0.500000000E+01   0.000000000E+00
 0.469494785E+01  -0.445233946E+01   0.000000000E+00
 0.471773964E+01  -0.383420605E+01   0.000000000E+00
 0.480541022E+01  -0.207178926E+01   0.000000000E+00
 0.481343433E+01   0.428432609E+01   0.000000000E+00
 0.489471799E+01  -0.186299870E+00   0.000000000E+00
 0.494390231E+01  -0.135982869E+01   0.000000000E+00
 0.500181944E+01   0.511219065E+00   0.000000000E+00
 0.503595357E+01   0.120184715E+01   0.000000000E+00
 0.504964703E+01   0.348586616E+01   0.000000000E+00
 0.505995253E+01   0.500000000E+01   0.000000000E+00
 0.511423621E+01   0.268756074E+01   0.000000000E+00
 0.516678874E+01   0.187918140E+01   0.000000000E+00
 0.519755453E+01  -0.500000000E+01   0.000000000E+00
 0.523656854E+01  -0.274377559E+01   0.000000000E+00
 0.525701783E+01  -0.785817632E+00   0.000000000E+00
 0.535843506E+01  -0.351591413E+01   0.000000000E+00
 0.535907440E+01  -0.426382176E+01   0.000000000E+00
 0.536197430E+01  -0.199730491E+01   0.000000000E+00
 0.541312809E+01   0.422529724E+01   0.000000000E+00
 0.550060512E+01  -0.908111002E-01   0.000000000E+00
 0.558487345E+01   0.500000000E+01   0.000000000E+00
 0.564978245E+01  -0.143926485E+01   0.000000000E+00
 0.568029610E+01   0.139596859E+01   0.000000000E+00
 0.568680693E+01  -0.500000000E+01   0.000000000E+00
 0.569446655E+01   0.348088243E+01   0.000000000E+00
 0.569622536E+01   0.213954228E+01   0.000000000E+00
 0.570809918E+01   0.661454757E+00   0.000000000E+00
 0.581149780E+01   0.279349544E+01   0.000000000E+00
 0.598079491E+01  -0.321437598E+01   0.000000000E+00
 0.599643732E+01  -0.231666185E+01   0.000000000E+00
 0.600635051E+01  -0.724843318E+00   0.000000000E+00
 0.604526551E+01  -0.407549633E+01   0.000000000E+00
 0.606231868E+01   0.428141778E+01   0.000000000E+00
 0.608250884E+01  -0.515670814E-03   0.000000000E+00
 0.611136523E+01   0.500000000E+01   0.000000000E+00
 0.618980066E+01  -0.500000000E+01   0.000000000E+00
 0.620934297E+01  -0.144188002E+01   0.000000000E+00
 0.625446536E+01   0.173766011E+01   0.000000000E+00
 0.630316483E+01   0.106814714E+01   0.000000000E+00
 0.632862281E+01   0.242743300E+01   0.000000000E+00
 0.640730770E+01   0.373279623E+01   0.000000000E+00
 0.641388090E+01   0.310896144E+01   0.000000000E+00
 0.654336968E+01   0.412757456E+00   0.000000000E+00
 0.656143529E+01  -0.290161782E+01   0.000000000E+00
 0.656380469E+01   0.500000000E+01   0.000000000E+00
 0.667963771E+01  -0.500000000E+01   0.000000000E+00
 0.669368917E+01  -0.256118568E+00   0.000000000E+00
 0.671036773E+01  -0.432197282E+01   0.000000000E+00
 0.673213238E+01  -0.169411772E+01   0.000000000E+00
 0.673830648E+01  -0.980254320E+00   0.000000000E+00
 0.676194768E+01  -0.234969160E+01   0.000000000E+00
 0.681098274E+01   0.428451265E+01   0.000000000E+00
 0.681587737E+01  -0.358498476E+01   0.000000000E+00
 0.682116132E+01   0.206997683E+01   0.000000000E+00
 0.691667099E+01   0.147791793E+01   0.000000000E+00
 0.696277745E+01   0.855341735E+00   0.000000000E+00
 0.700176623E+01   0.269729810E+01   0.000000000E+00
 0.706742745E+01   0.348872319E+01   0.000000000E+00
 0.710619161E+01   0.500000000E+01   0.000000000E+00
 0.714867342E+01  -0.500000000E+01   0.000000000E+00
 0.726778781E+01  -0.531958536E+00   0.000000000E+00
 0.728513513E+01  -0.201846473E+01   0.000000000E+00
 0.732593939E+01  -0.283957750E+01   0.000000000E+00
 0.742328237E+01   0.249292944E+00   0.000000000E+00
 0.743927442E+01  -0.422571268E+01   0.000000000E+00
 0.745867122E+01   0.422373976E+01   0.000000000E+00
 0.749460372E+01   0.198767645E+01   0.000000000E+00
 0.749945514E+01  -0.125072703E+01   0.000000000E+00
 0.753261435E+01   0.117814054E+01   0.000000000E+00
 0.758749860E+01   0.280476570E+01   0.000000000E+00
 0.761383466E+01   0.500000000E+01   0.000000000E+00
 0.765837249E+01  -0.500000000E+01   0.000000000E+00
 0.766242959E+01  -0.356008662E+01   0.000000000E+00
 0.768195637E+01   0.343454991E+01   0.000000000E+00
 0.787374479E+01  -0.205166475E+01   0.000000000E+00
 0.789916406E+01  -0.458434901E+00   0.000000000E+00
 0.797911298E+01  -0.285670450E+01   0.000000000E+00
 0.800507082E+01   0.814471255E+00   0.000000000E+00
 0.806828718E+01   0.232712458E+01   0.000000000E+00
 0.807491507E+01   0.373924998E+01   0.000000000E+00
 0.815496092E+01   0.500000000E+01   0.000000000E+00
 0.816997042E+01   0.158858621E+01   0.000000000E+00
 0.817548725E+01   0.434758364E+01   0.000000000E+00
 0.819721452E+01  -0.500000000E+01   0.000000000E+00
 0.823997649E+01  -0.113080620E+01   0.000000000E+00
 0.829020453E+01   0.202677846E+00   0.000000000E+00
 0.830856889E+01  -0.416786248E+01   0.000000000E+00
 0.834051059E+01   0.299223127E+01   0.000000000E+00
 0.838993173E+01  -0.187798107E+01   0.000000000E+00
 0.839065729E+01  -0.339079160E+01   0.000000000E+00
 0.862806500E+01   0.500000000E+01   0.000000000E+00
 0.863639219E+01  -0.392828858E+00   0.000000000E+00
 0.864471574E+01   0.879035113E+00   0.000000000E+00
 0.866251738E+01   0.366343168E+01   0.000000000E+00
 0.867086193E+01  -0.265923971E+01   0.000000000E+00
 0.868427507E+01  -0.500000000E+01   0.000000000E+00
 0.871019906E+01   0.228727666E+01   0.000000000E+00
 0.882252530E+01   0.154043012E+01   0.000000000E+00
 0.884845851E+01   0.429604950E+01   0.000000000E+00
 0.885698106E+01  -0.172154721E+01   0.000000000E+00
 0.906044749E+01  -0.986304991E+00   0.000000000E+00
 0.907461687E+01   0.303464036E+01   0.000000000E+00
 0.909148154E+01   0.500000000E+01   0.000000000E+00
 0.910682396E+01  -0.358362188E+01   0.000000000E+00
 0.913811888E+01  -0.500000000E+01   0.000000000E+00
 0.915747481E+01   0.305206987E+00   0.000000000E+00
 0.916636965E+01  -0.426093315E+01   0.000000000E+00
 0.932527740E+01  -0.224093450E+01   0.000000000E+00
 0.932608107E+01   0.365035503E+01   0.000000000E+00
 0.933814514E+01   0.106092859E+01   0.000000000E+00
 0.935176665E+01  -0.384199105E+00   0.000000000E+00
 0.935460373E+01   0.184557394E+01   0.000000000E+00
 0.936233355E+01  -0.294521299E+01   0.000000000E+00
 0.938792871E+01   0.251678666E+01   0.000000000E+00
 0.941503289E+01   0.435249499E+01   0.000000000E+00
 0.943798009E+01  -0.152644146E+01   0.000000000E+00
 0.954154233E+01   0.500000000E+01   0.000000000E+00
 0.961644537E+01  -0.500000000E+01   0.000000000E+00
 0.100000000E+02  -0.500000000E+01   0.000000000E+00
 0.100000000E+02  -0.446146954E+01   0.000000000E+00
 0.100000000E+02  -0.398529206E+01   0.000000000E+00
 0.100000000E+02  -0.348324356E+01   0.000000000E+00
 0.100000000E+02  -0.303129143E+01   0.000000000E+00
 0.100000000E+02  -0.253062261E+01   0.000000000E+00
 0.100000000E+02  -0.198073058E+01   0.000000000E+00
 0.100000000E+02  -0.146986017E+01   0.000000000E+00
 0.100000000E+02  -0.926826352E+00   0.000000000E+00
 0.100000000E+02  -0.389594102E+00   0.000000000E+00
 0.100000000E+02   0.766127280E-01   0.000000000E+00
 0.100000000E+02   0.606183536E+00   0.000000000E+00
 0.100000000E+02   0.110561466E+01   0.000000000E+00
 0.100000000E+02   0.161069333E+01   0.000000000E+00
 0.100000000E+02   0.213357716E+01   0.000000000E+00
 0.100000000E+02   0.258497973E+01   0.000000000E+00
 0.100000000E+02   0.307995984E+01   0.000000000E+00
 0.100000000E+02   0.354828478E+01   0.000000000E+00
 0.100000000E+02   0.400395699E+01   0.000000000E+00
 0.100000000E+02   0.447314728E+01   0.000000000E+00
 0.100000000E+02   0.500000000E+01   0.000000000E+00
      92     109      94
      66      68      75
     104     112      92
      24      43      26
      29      30       5
     160     159     168
     185     200     198
     131     114     122
       8      33       9
     106     101     116
      46      45      28
      28      45      34
      92     112     109
      11      10      35
     275     277     287
     193     210     204
     165     169     182
     381     398     397
     142     160     150
     347     338     332
     222     220     237
       1      22       2
     362     378     371
     453     438     454
     453     454     468
     309     310     321
     280     284     294
     147     156     167
     431     451     445
     245     244     263
     223     234     212
     418     431     424
     368     379     382
     324     334     317
     423     413     410
     263     244     266
     357     345     356
     264     255     269
     486     487     466
     327     340     344
     444     430     426
     392     388     380
     124     120     132
     423     410     411
     135     153     134
     218     209     200
     158     155     138
     113      93     102
      15      14      24
     161     153     145
     116     127     106
     385     386     370
      22      25       2
     172     183     162
     260     272     266
     145     153     135
     141     140     151
     197     189     206
     223     212     206
     170     157     164
     317     326     308
     138     155     140
     158     175     173
     209     198     200
     200     204     218
     113     129     118
     215     216     202
     382     379     394
     256     254     267
     385     400     386
     363     376     383
     235     228     218
     281     264     269
     327     329     313
     450     458     465
     359     370     374
     424     431     441
     341     344     354
     408     422     415
     346     359     347
     359     374     362
     464     456     451
     464     481     472
     348     361     363
     472     481     482
     398     396     413
     313     329     314
     180     181     191
     149     139     134
      31      41      52
     106     127     117
     122     110     124
      72      57      67
     147     167     152
     298     315     312
     158     173     155
     182     169     188
     213     203     224
     315     325     312
     388     372     373
     225     216     215
     232     250     239
      82      93     103
     254     270     267
     307     295     309
     289     291     302
     178     189     197
     409     404     421
     417     420     403
     295     296     309
     275     295     279
     284     297     294
     263     278     269
     374     386     378
     263     269     255
     337     350     348
     350     361     348
     334     346     326
     386     393     378
     381     397     389
     449     454     438
     432     420     417
     363     383     364
     450     444     458
     254     256     241
     422     427     415
     254     241     237
     488     489     468
     466     468     454
     205     222     219
     219     222     230
      34      24      13
      12      11      28
      99     102      87
      99      87      83
      49      63      69
      76      83      67
     104     117     112
      70      71      85