# vtk DataFile Version 2.0
FEHM VTK model, time:    100.000    
ASCII
DATASET UNSTRUCTURED_GRID
POINTS     7285 double
  -20.0000      -10.0000       0.00000    
  -20.0000      -9.83349       0.00000    
  -20.0000      -9.56569       0.00000    
  -20.0000      -9.30018       0.00000    
  -20.0000      -9.06894       0.00000    
  -20.0000      -8.82343       0.00000    
  -20.0000      -8.58429       0.00000    
  -20.0000      -8.34795       0.00000    
  -20.0000      -8.09725       0.00000    
  -20.0000      -7.85367       0.00000    
  -20.0000      -7.60401       0.00000    
  -20.0000      -7.35380       0.00000    
  -20.0000      -7.11558       0.00000    
  -20.0000      -6.86563       0.00000    
  -20.0000      -6.60130       0.00000    
  -20.0000      -6.36871       0.00000    
  -20.0000      -6.10670       0.00000    
  -20.0000      -5.84151       0.00000    
  -20.0000      -5.60528       0.00000    
  -20.0000      -5.36488       0.00000    
  -20.0000      -5.10666       0.00000    
  -20.0000      -4.84841       0.00000    
  -20.0000      -4.59856       0.00000    
  -20.0000      -4.35588       0.00000    
  -20.0000      -4.09584       0.00000    
  -20.0000      -3.85923       0.00000    
  -20.0000      -3.62918       0.00000    
  -20.0000      -3.39947       0.00000    
  -20.0000      -3.14492       0.00000    
  -20.0000      -2.88750       0.00000    
  -20.0000      -2.62660       0.00000    
  -20.0000      -2.38109       0.00000    
  -20.0000      -2.14171       0.00000    
  -20.0000      -1.91320       0.00000    
  -20.0000      -1.64049       0.00000    
  -20.0000      -1.40207       0.00000    
  -20.0000      -1.13374       0.00000    
  -20.0000     -0.906576       0.00000    
  -20.0000     -0.643323       0.00000    
  -20.0000     -0.374342       0.00000    
  -20.0000     -0.117383       0.00000    
  -20.0000      0.141705       0.00000    
  -20.0000      0.411314       0.00000    
  -20.0000      0.684650       0.00000    
  -20.0000      0.933342       0.00000    
  -20.0000       1.19700       0.00000    
  -20.0000       1.42904       0.00000    
  -20.0000       1.66758       0.00000    
  -20.0000       1.93161       0.00000    
  -20.0000       2.19305       0.00000    
  -20.0000       2.44277       0.00000    
  -20.0000       2.67492       0.00000    
  -20.0000       2.90049       0.00000    
  -20.0000       3.14355       0.00000    
  -20.0000       3.40220       0.00000    
  -20.0000       3.67205       0.00000    
  -20.0000       3.93578       0.00000    
  -20.0000       4.19258       0.00000    
  -20.0000       4.44056       0.00000    
  -20.0000       4.70160       0.00000    
  -20.0000       4.96101       0.00000    
  -20.0000       5.21461       0.00000    
  -20.0000       5.46947       0.00000    
  -20.0000       5.72153       0.00000    
  -20.0000       5.97957       0.00000    
  -20.0000       6.25265       0.00000    
  -20.0000       6.48995       0.00000    
  -20.0000       6.73923       0.00000    
  -20.0000       6.99245       0.00000    
  -20.0000       7.26680       0.00000    
  -20.0000       7.52998       0.00000    
  -20.0000       7.79244       0.00000    
  -20.0000       8.05568       0.00000    
  -20.0000       8.28190       0.00000    
  -20.0000       8.55310       0.00000    
  -20.0000       8.80692       0.00000    
  -20.0000       9.07748       0.00000    
  -20.0000       9.31403       0.00000    
  -20.0000       9.54574       0.00000    
  -20.0000       9.77077       0.00000    
  -20.0000       10.0000       0.00000    
  -19.7722      -10.0000       0.00000    
  -19.7704       10.0000       0.00000    
  -19.7070       3.93344       0.00000    
  -19.6994      -6.06484       0.00000    
  -19.6864      -6.77452       0.00000    
  -19.6814      -2.41552       0.00000    
  -19.6803       5.21915       0.00000    
  -19.6792       5.98737       0.00000    
  -19.6734      -5.64210       0.00000    
  -19.6707       9.44996       0.00000    
  -19.6693      -5.30717       0.00000    
  -19.6688       8.45249       0.00000    
  -19.6681      -4.70208       0.00000    
  -19.6674       2.97599       0.00000    
  -19.6624      -1.40518       0.00000    
  -19.6611      -7.57334       0.00000    
  -19.6596      -3.82333       0.00000    
  -19.6596       2.39124       0.00000    
  -19.6584      -7.13032       0.00000    
  -19.6527      -8.83644       0.00000    
  -19.6481       8.84470       0.00000    
  -19.6455     -0.853706       0.00000    
  -19.6410      -9.58862       0.00000    
  -19.6369       4.27452       0.00000    
  -19.6354      0.990998       0.00000    
  -19.6346      -1.73443       0.00000    
  -19.6340      0.596438       0.00000    
  -19.6328      -4.36858       0.00000    
  -19.6322       7.24378       0.00000    
  -19.6272       6.78652       0.00000    
  -19.6234     -0.526262       0.00000    
  -19.6209       7.65771       0.00000    
  -19.6203       9.70844       0.00000    
  -19.6190      -3.13498       0.00000    
  -19.6188      -8.00815       0.00000    
  -19.6152      -3.50494       0.00000    
  -19.6131       5.53017       0.00000    
  -19.6087      0.256427       0.00000    
  -19.6048       1.40275       0.00000    
  -19.6047     -0.118429       0.00000    
  -19.6041       4.90840       0.00000    
  -19.6006       4.60462       0.00000    
  -19.5939       2.67746       0.00000    
  -19.5904      -6.45680       0.00000    
  -19.5886       6.37573       0.00000    
  -19.5863      -2.77284       0.00000    
  -19.5820       8.06071       0.00000    
  -19.5817      -2.09256       0.00000    
  -19.5812       3.58553       0.00000    
  -19.5780       3.24683       0.00000    
  -19.5778      -8.46382       0.00000    
  -19.5614       9.18167       0.00000    
  -19.5555       2.07303       0.00000    
  -19.5535       1.75089       0.00000    
  -19.5448       10.0000       0.00000    
  -19.5446      -9.21344       0.00000    
  -19.5236      -10.0000       0.00000    
  -19.5167      -5.01989       0.00000    
  -19.4936      -4.06303       0.00000    
  -19.4930      -1.12456       0.00000    
  -19.4444       5.78477       0.00000    
  -19.4379      -5.82220       0.00000    
  -19.4066      -7.26705       0.00000    
  -19.4022      -6.14285       0.00000    
  -19.3991       3.98583       0.00000    
  -19.3657       8.66119       0.00000    
  -19.3393      -2.42534       0.00000    
  -19.3327       8.38324       0.00000    
  -19.3295       7.03757       0.00000    
  -19.3283      -7.60847       0.00000    
  -19.3245      0.793972       0.00000    
  -19.3171      -6.82322       0.00000    
  -19.3163      -1.85597       0.00000    
  -19.3158     -0.417118       0.00000    
  -19.3142      -4.63293       0.00000    
  -19.3102       10.0000       0.00000    
  -19.3089      -5.46358       0.00000    
  -19.3057      -8.17619       0.00000    
  -19.3010       5.17453       0.00000    
  -19.2970       1.19992       0.00000    
  -19.2944      -3.34808       0.00000    
  -19.2883       7.85932       0.00000    
  -19.2850       7.45936       0.00000    
  -19.2842       6.04263       0.00000    
  -19.2841      -8.84660       0.00000    
  -19.2773      -1.49929       0.00000    
  -19.2714      -9.59136       0.00000    
  -19.2710       2.86749       0.00000    
  -19.2692      -3.74053       0.00000    
  -19.2683      -4.30970       0.00000    
  -19.2646       9.58329       0.00000    
  -19.2631      -10.0000       0.00000    
  -19.2611       6.67040       0.00000    
  -19.2602       4.37768       0.00000    
  -19.2464      0.471762       0.00000    
  -19.2417      0.126633       0.00000    
  -19.2406       2.36924       0.00000    
  -19.2299       4.77530       0.00000    
  -19.2295      -2.99727       0.00000    
  -19.2253       8.92786       0.00000    
  -19.2176       3.67794       0.00000    
  -19.2138      -7.87405       0.00000    
  -19.2069     -0.761956       0.00000    
  -19.2029       5.59405       0.00000    
  -19.2013       3.31456       0.00000    
  -19.1986       6.37922       0.00000    
  -19.1969      -6.38437       0.00000    
  -19.1845     -0.166738       0.00000    
  -19.1826       1.52852       0.00000    
  -19.1728      -2.70335       0.00000    
  -19.1697       9.21397       0.00000    
  -19.1540      -8.43843       0.00000    
  -19.1450      -2.15108       0.00000    
  -19.1342      -5.90884       0.00000    
  -19.1291      -9.25301       0.00000    
  -19.1275      -5.19068       0.00000    
  -19.1257      -1.16872       0.00000    
  -19.1160       8.21287       0.00000    
  -19.1134       1.92908       0.00000    
  -19.0948      -4.85130       0.00000    
  -19.0863      -7.26450       0.00000    
  -19.0831      0.978724       0.00000    
  -19.0824       10.0000       0.00000    
  -19.0707       3.98520       0.00000    
  -19.0523      -4.04533       0.00000    
  -19.0369      -10.0000       0.00000    
  -19.0342       7.21167       0.00000    
  -18.9974      -3.49646       0.00000    
  -18.9953       5.30865       0.00000    
  -18.9807       7.72187       0.00000    
  -18.9767      -1.82045       0.00000    
  -18.9734       8.59416       0.00000    
  -18.9642       6.20128       0.00000    
  -18.9608       6.87689       0.00000    
  -18.9587      -6.96992       0.00000    
  -18.9490      -6.61175       0.00000    
  -18.9471       2.58673       0.00000    
  -18.9371       2.98886       0.00000    
  -18.9324      -5.52322       0.00000    
  -18.9319      -3.16968       0.00000    
  -18.9289      -2.45958       0.00000    
  -18.9279      -8.67213       0.00000    
  -18.9270       9.36589       0.00000    
  -18.9223     -0.418029       0.00000    
  -18.9185       8.00240       0.00000    
  -18.9170      -8.05488       0.00000    
  -18.9148      -7.59414       0.00000    
  -18.9096       5.88445       0.00000    
[...]
POINT_DATA      7285
SCALARS Liquid_Pressure_(MPa)                    double 1
LOOKUP_TABLE default
       5.21931           5.21948           5.22015           5.22152           5.22324           5.22555           5.22850           5.23194           5.23629           5.24113    
       5.24682           5.25337           5.26020           5.26855           5.27804           5.28748           5.29937           5.31249           5.32505           5.34008    
       5.35709           5.37684           5.39600           5.41800           5.44474           5.47100           5.49889           5.52885           5.56796           5.61387    
       5.66434           5.71708           5.78569           5.86076           5.95852           6.07481           6.25884           6.46402           6.85524           7.66320    
       9.52574           16.6657           9.09983           7.36102           6.76531           6.45887           6.23730           6.07994           5.95364           5.85423    
       5.77780           5.71352           5.66086           5.61624           5.57150           5.53064           5.49482           5.46520           5.44055           5.41651    
       5.39448           5.37484           5.35750           5.34247           5.32788           5.31434           5.30376           5.29337           5.28443           5.27549    
       5.26801           5.26159           5.25581           5.25159           5.24731           5.24399           5.24129           5.23950           5.23826           5.23754    
       5.23726           5.21900           5.23697           5.49356           5.30046           5.27094           5.70621           5.37362           5.32678           5.32216    
       5.23819           5.34245           5.24816           5.38645           5.64500           6.06238           5.24688           5.47244           5.78299           5.25903    
       5.22481           5.24295           6.45676           5.21945           5.45496           6.60624           5.90995           7.29968           5.41562           5.27536    
       5.29067           6.85892           5.26390           5.23702           5.56622           5.23714           5.51232           5.35217           7.96675           6.22337    
       7.73154           5.39671           5.42273           5.70727           5.28282           5.30726           5.62804           5.25482           5.78911           5.53786    
       5.59111           5.22928           5.23946           5.87790           6.01262           5.23628           5.22112           5.21823           5.36053           5.44395    
       6.19221           5.33594           5.31077           5.25377           5.29520           5.48313           5.24380           5.69148           5.24759           5.27975    
       5.24437           6.60663           5.26704           5.83520           6.70716           5.38772           5.23502           5.32936           5.23246           5.37244    
       6.24914           5.52453           5.25708           5.26689           5.32049           5.22290           5.96058           5.21766           5.65056           5.47434    
       5.41539           5.23553           5.21685           5.29230           5.43833           6.74399           6.82959           5.76009           5.40187           5.57504    
       5.23981           5.51699           5.23754           6.33329           5.34355           5.56922           5.30373           5.28244           6.70949           6.03240    
       5.62406           5.23691           5.22708           5.73715           5.30289           5.21832           5.34361           6.06650           5.24869           5.87305    
       5.36644           5.25124           6.26203           5.23329           5.47471           5.43519           5.21509           5.27119           5.49388           5.35795    
       5.25729           5.80453           5.24138           5.30808           5.28116           5.25848           5.27048           5.68143           5.60840           5.32050    
       5.53439           5.65093           5.22194           5.23371           6.32760           5.25045           5.23114           5.24073           5.32284           5.39676    
       5.43894           6.37463           6.25568           5.40867           5.88218           5.37887           5.30052           5.21796           6.07083           5.21402    
       5.23165           5.23110           5.33778           5.28342           6.34526           5.50800           5.45687           6.04073           5.26070           5.29168    
       5.75070           5.55157           5.90848           5.23514           5.36477           5.57913           5.33922           5.21249           5.22400           5.93516    
       5.69533           5.21418           5.46097           5.26812           6.08761           5.25817           5.34812           5.24245           5.61904           5.48752    
       5.24664           5.30321           5.42110           5.78724           5.23713           6.13647           5.23185           5.75221           5.22811           5.24888    
       5.31644           5.27718           5.29711           5.22980           5.52334           5.21690           5.26698           5.42037           5.38673           5.60543    
       5.66124           5.56010           5.36817           5.34551           6.11018           5.23634           5.99545           5.20929           6.07860           5.39044    
       5.31938           5.81231           5.22477           5.27864           5.22693           5.50894           5.88438           5.25539           5.35995           5.90857    
       5.44970           5.21184           5.46161           5.20903           5.26401           5.79894           5.21844           5.23169           5.28374           5.65399    
       5.22495           5.68884           5.33559           5.22799           5.29780           5.32227           5.25056           5.58317           5.96703           5.30021    
       5.52983           5.91358           5.47939           5.23383           5.24464           5.23844           5.20546           5.28169           5.70475           5.41904    
       5.41681           5.23599           5.38696           5.26649           5.34026           5.22502           5.22351           5.39036           5.77466           5.83264    
       5.70374           5.26264           5.36288           5.92996           5.56913           5.21113           5.51729           5.36020           5.47435           5.91364    
       5.60858           5.22126           5.25407           5.21644           5.20726           5.22071           5.81463           5.24610           5.31645           5.43824    
       5.29946           5.33699           5.20467           5.83712           5.61266           5.28216           5.87456           5.74048           5.20278           5.42896    
       5.22489           5.23902           5.30207           5.26790           5.20146           5.54785           5.38605           5.22670           5.44657           5.24816    
       5.26946           5.61918           5.22008           5.28440           5.82505           5.31481           5.63430           5.22269           5.68299           5.23522    
       5.46768           5.82098           5.40652           5.33405           5.20770           5.35975           5.21589           5.49905           5.72344           5.22831    
       5.38916           5.25126           5.72694           5.24204           5.53858           5.43339           5.21372           5.64134           5.22633           5.35682    
       5.21519           5.31576           5.46491           5.75534           5.29701           5.20106           5.33537           5.19707           5.28097           5.49582    
       5.19698           5.25422           5.54635           5.26673           5.57099           5.23301           5.65876           5.72706           5.21965           5.25469    
       5.21607           5.74075           5.28748           5.37341           5.26725           5.73425           5.21059           5.20472           5.40884           5.59981    
       5.23864           5.30462           5.23164           5.21186           5.56867           5.64326           5.32772           5.66876           5.39152           5.34921    
       5.19881           5.19173           5.22410           5.47618           5.29524           5.21218           5.37054           5.19296           5.48465           5.41494    
       5.65612           5.43324           5.23521           5.50902           5.31271           5.21915           5.27674           5.62423           5.26241           5.53816    
       5.58074           5.34632           5.22559           5.43871           5.32745           5.20626           5.23977           5.21628           5.24964           5.18913    
       5.66074           5.20318           5.23849           5.26675           5.50801           5.21090           5.19206           5.20451           5.64083           5.57748    
       5.24727           5.19693           5.30096           5.20656           5.64425           5.18589           5.35422           5.60923           5.61752           5.22208    
       5.20299           5.29253           5.58351           5.38474           5.52878           5.51444           5.27663           5.36327           5.33672           5.31467    
       5.62448           5.27712           5.20735           5.22383           5.42675           5.43522           5.45938           5.45792           5.37036           5.58331    
       5.39253           5.25491           5.21394           5.21374           5.24906           5.55238           5.48472           5.18911           5.24354           5.18390    
       5.19844           5.26293           5.23317           5.52545           5.18136           5.30004           5.22255           5.19706           5.32200           5.58744    
       5.20085           5.17985           5.52250           5.20334           5.19007           5.19632           5.20597           5.22478           5.38197           5.18281    
       5.28357           5.25011           5.54711           5.39130           5.44966           5.27345           5.52171           5.20319           5.32801           5.33317    
       5.19471           5.52300           5.47941           5.23259           5.41654           5.47284           5.41249           5.19644           5.54921           5.54375    
       5.53191           5.17563           5.19108           5.20885           5.45852           5.24668           5.30532           5.43466           5.23596           5.38708    
       5.25747           5.28852           5.35418           5.33813           5.25008           5.22659           5.21825           5.20731           5.17311           5.52876    
       5.26009           5.29440           5.18348           5.20095           5.47688           5.21886           5.47537           5.17359           5.17722           5.26979    
       5.19456           5.18744           5.38198           5.18996           5.18598           5.18533           5.29959           5.49379           5.27590           5.20523    
       5.33709           5.47611           5.16796           5.41709           5.42274           5.23072           5.47039           5.19151           5.18324           5.26381    
       5.32135           5.34990           5.35183           5.38622           5.22684           5.20524           5.48172           5.23760           5.16560           5.42726    
       5.36389           5.30252           5.24747           5.21142           5.29481           5.42716           5.38621           5.18240           5.20396           5.47438    
       5.47497           5.27328           5.23448           5.21304           5.18913           5.21649           5.17497           5.45728           5.43227           5.19193    
       5.17096           5.46149           5.16535           5.38367           5.35385           5.30244           5.32127           5.16269           5.19112           5.17648    
       5.24063           5.18230           5.25067           5.26794           5.41776           5.17495           5.43866           5.17773           5.15835           5.21831    
       5.17294           5.16369           5.15796           5.31267           5.38430           5.41794           5.17658           5.37748           5.27413           5.18014    
       5.19650           5.42652           5.41274           5.22336           5.18903           5.32383           5.38325           5.28829           5.19571           5.34022    
       5.18763           5.24148           5.25874           5.33845           5.19884           5.31849           5.20280           5.21033           5.21915           5.17032    
       5.22682           5.17711           5.16789           5.37904           5.41011           5.40888           5.26602           5.16201           5.39847           5.28384    
       5.15174           5.24294           5.15869           5.28990           5.16599           5.15030           5.34440           5.20082           5.15385           5.15213    
       5.39888           5.33714           5.22923           5.16944           5.20496           5.16329           5.38640           5.16405           5.36254           5.34934    
       5.17330           5.16607           5.21598           5.25816           5.18370           5.17319           5.36237           5.14553           5.24354           5.28588    
       5.28570           5.17708           5.16324           5.23098           5.36144           5.37168           5.29891           5.33531           5.14894           5.30180    
       5.18295           5.15695           5.18453           5.25879           5.20194           5.14184           5.25530           5.30554           5.19678           5.15580    
       5.20969           5.17232           5.35807           5.23164           5.35088           5.16257           5.18598           5.15129           5.15615           5.26009    
       5.14006           5.14731           5.31205           5.20988           5.33128           5.27753           5.21721           5.32310           5.34878           5.34514    
       5.25932           5.33981           5.18538           5.14013           5.34675           5.29140           5.15096           5.32034           5.15539           5.15135    
       5.23344           5.15532           5.29699           5.16502           5.16987           5.26435           5.14877           5.21773           5.15849           5.13361    
       5.20815           5.23066           5.13296           5.15934           5.14911           5.18946           5.19053           5.13646           5.27970           5.17027    
       5.15418           5.31482           5.16375           5.26372           5.24251           5.30734           5.29032           5.30474           5.22998           5.23190    
       5.19251           5.25738           5.24331           5.17809           5.17395           5.20851           5.12837           5.16454           5.14673           5.12716    
       5.14095           5.20899           5.28604           5.29969           5.14059           5.30274           5.27849           5.15550           5.13545           5.30028    
       5.13937           5.12451           5.14004           5.25862           5.19251           5.19530           5.12737           5.29661           5.16554           5.14050    
       5.18177           5.27600           5.14046           5.14588           5.15399           5.23142           5.20425           5.13628           5.25501           5.24419    
       5.19089           5.25058           5.11916           5.17075           5.15471           5.14298           5.27256           5.12293           5.13848           5.21613    
       5.21278           5.19676           5.16532           5.15317           5.22035           5.20192           5.25886           5.12975           5.11527           5.26026    
       5.22849           5.17113           5.11653           5.25758           5.14279           5.26475           5.26097           5.12146           5.12618           5.24527    
       5.20058           5.25889           5.18111           5.12736           5.21736           5.25727           5.11299           5.21804           5.15480           5.12958    
       5.14952           5.23281           5.16784           5.12656           5.13750           5.12498           5.23569           5.13111           5.11247           5.12380    
       5.12762           5.17358           5.21778           5.14449           5.11673           5.16638           5.13905           5.15473           5.21375           5.13613    
       5.12818           5.22773           5.17463           5.19127           5.10536           5.11894           5.18957           5.21400           5.11059           5.15001    
       5.23204           5.10422           5.23174           5.18156           5.17085           5.22388           5.15143           5.13997           5.12084           5.18719    
       5.22051           5.10226           5.12277           5.16977           5.11619           5.21323           5.10431           5.19055           5.21317           5.11280    
       5.16750           5.21668           5.15293           5.11330           5.20252           5.18782           5.10721           5.13607           5.11190           5.18124    
       5.10827           5.12344           5.13032           5.12559           5.11318           5.09572           5.09669           5.14174           5.20603           5.10902    
       5.11830           5.11944           5.19007           5.09770           5.14859           5.12457           5.19082           5.13996           5.12955           5.10859    
       5.17700           5.17575           5.19408           5.14513           5.15894           5.17841           5.15577           5.09647           5.19005           5.13023    
       5.18179           5.15127           5.10614           5.12581           5.14364           5.15667           5.15888           5.11704           5.08755           5.17913    
       5.10599           5.10101           5.08637           5.09925           5.16035           5.10063           5.17806           5.09827           5.11639           5.08835    
       5.09585           5.16829           5.10668           5.10403           5.10500           5.11874           5.08444           5.09069           5.09858           5.16180    
       5.16709           5.08274           5.12508           5.12170           5.10633           5.14775           5.13216           5.16541           5.09751           5.16164    
       5.10591           5.14678           5.12260           5.14705           5.12739           5.10529           5.08984           5.11387           5.11843           5.13232    
       5.14301           5.07616           5.12663           5.08881           5.15171           5.10616           5.08013           5.13496           5.09778           5.09091    
       5.08802           5.12731           5.10684           5.08732           5.12383           5.09223           5.07467           5.13724           5.11474           5.13552    
       5.13797           5.07938           5.12901           5.07140           5.08734           5.12253           5.08473           5.09703           5.09592           5.06994    
       5.07522           5.12927           5.12741           5.08570           5.08183           5.08901           5.13229           5.13122           5.10183           5.08155    