TITLE = "Two phase example with test of non-darcy flow"
FILETYPE = "GRID"
VARIABLES = "X coordinate (m)" "Y coordinate (m)" "Z coordinate (m)"
ZONE T = "GRID", N =     7285, E =    13847, DATAPACKING = POINT, ZONETYPE = FEBRICK, STRANDID = 0, SOLUTIONTIME = 0.
-0.200000000E+02  -0.100000000E+02   0.000000000E+00
-0.200000000E+02  -0.983349174E+01   0.000000000E+00
-0.200000000E+02  -0.956568741E+01   0.000000000E+00
-0.200000000E+02  -0.930017842E+01   0.000000000E+00
-0.200000000E+02  -0.906893565E+01   0.000000000E+00
-0.200000000E+02  -0.882342719E+01   0.000000000E+00
-0.200000000E+02  -0.858429191E+01   0.000000000E+00
-0.200000000E+02  -0.834794546E+01   0.000000000E+00
-0.200000000E+02  -0.809724995E+01   0.000000000E+00
-0.200000000E+02  -0.785367215E+01   0.000000000E+00
-0.200000000E+02  -0.760401104E+01   0.000000000E+00
-0.200000000E+02  -0.735380004E+01   0.000000000E+00
-0.200000000E+02  -0.711558371E+01   0.000000000E+00
-0.200000000E+02  -0.686562896E+01   0.000000000E+00
-0.200000000E+02  -0.660129589E+01   0.000000000E+00
-0.200000000E+02  -0.636870667E+01   0.000000000E+00
-0.200000000E+02  -0.610670060E+01   0.000000000E+00
-0.200000000E+02  -0.584150646E+01   0.000000000E+00
-0.200000000E+02  -0.560528155E+01   0.000000000E+00
-0.200000000E+02  -0.536488261E+01   0.000000000E+00
-0.200000000E+02  -0.510666382E+01   0.000000000E+00
-0.200000000E+02  -0.484840628E+01   0.000000000E+00
-0.200000000E+02  -0.459856040E+01   0.000000000E+00
-0.200000000E+02  -0.435588232E+01   0.000000000E+00
-0.200000000E+02  -0.409584075E+01   0.000000000E+00
-0.200000000E+02  -0.385923177E+01   0.000000000E+00
-0.200000000E+02  -0.362917757E+01   0.000000000E+00
-0.200000000E+02  -0.339946512E+01   0.000000000E+00
-0.200000000E+02  -0.314491720E+01   0.000000000E+00
-0.200000000E+02  -0.288749991E+01   0.000000000E+00
-0.200000000E+02  -0.262660291E+01   0.000000000E+00
-0.200000000E+02  -0.238109080E+01   0.000000000E+00
-0.200000000E+02  -0.214170788E+01   0.000000000E+00
-0.200000000E+02  -0.191319861E+01   0.000000000E+00
-0.200000000E+02  -0.164048863E+01   0.000000000E+00
-0.200000000E+02  -0.140207057E+01   0.000000000E+00
-0.200000000E+02  -0.113373575E+01   0.000000000E+00
-0.200000000E+02  -0.906576425E+00   0.000000000E+00
-0.200000000E+02  -0.643322512E+00   0.000000000E+00
-0.200000000E+02  -0.374341616E+00   0.000000000E+00
-0.200000000E+02  -0.117383276E+00   0.000000000E+00
-0.200000000E+02   0.141705040E+00   0.000000000E+00
-0.200000000E+02   0.411313763E+00   0.000000000E+00
-0.200000000E+02   0.684650221E+00   0.000000000E+00
-0.200000000E+02   0.933341870E+00   0.000000000E+00
-0.200000000E+02   0.119700258E+01   0.000000000E+00
-0.200000000E+02   0.142903726E+01   0.000000000E+00
-0.200000000E+02   0.166757981E+01   0.000000000E+00
-0.200000000E+02   0.193161164E+01   0.000000000E+00
-0.200000000E+02   0.219304646E+01   0.000000000E+00
-0.200000000E+02   0.244276679E+01   0.000000000E+00
-0.200000000E+02   0.267491790E+01   0.000000000E+00
-0.200000000E+02   0.290048669E+01   0.000000000E+00
-0.200000000E+02   0.314354811E+01   0.000000000E+00
-0.200000000E+02   0.340220410E+01   0.000000000E+00
-0.200000000E+02   0.367204926E+01   0.000000000E+00
-0.200000000E+02   0.393578317E+01   0.000000000E+00
-0.200000000E+02   0.419258472E+01   0.000000000E+00
-0.200000000E+02   0.444056253E+01   0.000000000E+00
-0.200000000E+02   0.470160038E+01   0.000000000E+00
-0.200000000E+02   0.496100868E+01   0.000000000E+00
-0.200000000E+02   0.521461260E+01   0.000000000E+00
-0.200000000E+02   0.546946552E+01   0.000000000E+00
-0.200000000E+02   0.572152595E+01   0.000000000E+00
-0.200000000E+02   0.597957357E+01   0.000000000E+00
-0.200000000E+02   0.625264516E+01   0.000000000E+00
-0.200000000E+02   0.648994779E+01   0.000000000E+00
-0.200000000E+02   0.673922567E+01   0.000000000E+00
-0.200000000E+02   0.699245364E+01   0.000000000E+00
-0.200000000E+02   0.726679843E+01   0.000000000E+00
-0.200000000E+02   0.752997626E+01   0.000000000E+00
-0.200000000E+02   0.779243672E+01   0.000000000E+00
-0.200000000E+02   0.805568261E+01   0.000000000E+00
-0.200000000E+02   0.828190234E+01   0.000000000E+00
-0.200000000E+02   0.855309580E+01   0.000000000E+00
-0.200000000E+02   0.880691733E+01   0.000000000E+00
-0.200000000E+02   0.907748046E+01   0.000000000E+00
-0.200000000E+02   0.931403250E+01   0.000000000E+00
-0.200000000E+02   0.954574077E+01   0.000000000E+00
-0.200000000E+02   0.977077117E+01   0.000000000E+00
-0.200000000E+02   0.100000000E+02   0.000000000E+00
-0.197722226E+02  -0.100000000E+02   0.000000000E+00
-0.197704089E+02   0.100000000E+02   0.000000000E+00
-0.197070059E+02   0.393343581E+01   0.000000000E+00
-0.196994262E+02  -0.606484245E+01   0.000000000E+00
-0.196863550E+02  -0.677452493E+01   0.000000000E+00
-0.196814411E+02  -0.241551726E+01   0.000000000E+00
-0.196803457E+02   0.521915337E+01   0.000000000E+00
-0.196792045E+02   0.598737399E+01   0.000000000E+00
-0.196734042E+02  -0.564209781E+01   0.000000000E+00
-0.196706672E+02   0.944996093E+01   0.000000000E+00
-0.196693026E+02  -0.530717013E+01   0.000000000E+00
-0.196687968E+02   0.845249084E+01   0.000000000E+00
-0.196681363E+02  -0.470207652E+01   0.000000000E+00
-0.196673889E+02   0.297599362E+01   0.000000000E+00
-0.196623847E+02  -0.140518165E+01   0.000000000E+00
-0.196611201E+02  -0.757334297E+01   0.000000000E+00
-0.196596328E+02  -0.382333082E+01   0.000000000E+00
-0.196596219E+02   0.239124193E+01   0.000000000E+00
-0.196583634E+02  -0.713032324E+01   0.000000000E+00
-0.196527472E+02  -0.883644441E+01   0.000000000E+00
-0.196481257E+02   0.884470097E+01   0.000000000E+00
-0.196454828E+02  -0.853706487E+00   0.000000000E+00
-0.196410313E+02  -0.958862114E+01   0.000000000E+00
-0.196368654E+02   0.427452492E+01   0.000000000E+00
-0.196353809E+02   0.990998450E+00   0.000000000E+00
-0.196345601E+02  -0.173443386E+01   0.000000000E+00
-0.196339696E+02   0.596438322E+00   0.000000000E+00
-0.196328091E+02  -0.436858375E+01   0.000000000E+00
-0.196322102E+02   0.724377765E+01   0.000000000E+00
-0.196272422E+02   0.678652219E+01   0.000000000E+00
-0.196234024E+02  -0.526262310E+00   0.000000000E+00
-0.196209394E+02   0.765770542E+01   0.000000000E+00
-0.196203098E+02   0.970844435E+01   0.000000000E+00
-0.196190323E+02  -0.313498182E+01   0.000000000E+00
-0.196187527E+02  -0.800815281E+01   0.000000000E+00
-0.196152201E+02  -0.350494448E+01   0.000000000E+00
-0.196131284E+02   0.553016645E+01   0.000000000E+00
-0.196086556E+02   0.256427221E+00   0.000000000E+00
-0.196047648E+02   0.140274540E+01   0.000000000E+00
-0.196047319E+02  -0.118428941E+00   0.000000000E+00
-0.196040968E+02   0.490839544E+01   0.000000000E+00
-0.196005717E+02   0.460461741E+01   0.000000000E+00
-0.195938768E+02   0.267746151E+01   0.000000000E+00
-0.195904291E+02  -0.645679570E+01   0.000000000E+00
-0.195885599E+02   0.637573314E+01   0.000000000E+00
-0.195863352E+02  -0.277284467E+01   0.000000000E+00
-0.195819678E+02   0.806071245E+01   0.000000000E+00
-0.195817427E+02  -0.209256470E+01   0.000000000E+00
-0.195811973E+02   0.358552909E+01   0.000000000E+00
-0.195779521E+02   0.324682570E+01   0.000000000E+00
-0.195777905E+02  -0.846382390E+01   0.000000000E+00
-0.195614018E+02   0.918166822E+01   0.000000000E+00
-0.195554518E+02   0.207302927E+01   0.000000000E+00
-0.195534938E+02   0.175089270E+01   0.000000000E+00
-0.195447963E+02   0.100000000E+02   0.000000000E+00
-0.195445926E+02  -0.921343793E+01   0.000000000E+00
-0.195236423E+02  -0.100000000E+02   0.000000000E+00
-0.195167480E+02  -0.501989346E+01   0.000000000E+00
-0.194936006E+02  -0.406303258E+01   0.000000000E+00
-0.194930213E+02  -0.112455837E+01   0.000000000E+00
-0.194443744E+02   0.578476755E+01   0.000000000E+00
-0.194378507E+02  -0.582219833E+01   0.000000000E+00
-0.194065897E+02  -0.726705138E+01   0.000000000E+00
-0.194021623E+02  -0.614284601E+01   0.000000000E+00
-0.193990614E+02   0.398582811E+01   0.000000000E+00
-0.193656848E+02   0.866119380E+01   0.000000000E+00
-0.193393473E+02  -0.242533561E+01   0.000000000E+00
-0.193326827E+02   0.838323689E+01   0.000000000E+00
-0.193294883E+02   0.703757181E+01   0.000000000E+00
-0.193282848E+02  -0.760847414E+01   0.000000000E+00
-0.193245005E+02   0.793972221E+00   0.000000000E+00
-0.193171135E+02  -0.682322450E+01   0.000000000E+00
-0.193162919E+02  -0.185597437E+01   0.000000000E+00
-0.193158376E+02  -0.417117747E+00   0.000000000E+00
-0.193142332E+02  -0.463293026E+01   0.000000000E+00
-0.193102012E+02   0.100000000E+02   0.000000000E+00
-0.193088659E+02  -0.546357905E+01   0.000000000E+00
-0.193057282E+02  -0.817619269E+01   0.000000000E+00
-0.193009947E+02   0.517452674E+01   0.000000000E+00
-0.192969560E+02   0.119992157E+01   0.000000000E+00
-0.192943541E+02  -0.334808431E+01   0.000000000E+00
-0.192883148E+02   0.785932118E+01   0.000000000E+00
-0.192849669E+02   0.745936146E+01   0.000000000E+00
-0.192842372E+02   0.604263326E+01   0.000000000E+00
-0.192841118E+02  -0.884659814E+01   0.000000000E+00
-0.192773307E+02  -0.149928815E+01   0.000000000E+00
-0.192713554E+02  -0.959136438E+01   0.000000000E+00
-0.192709575E+02   0.286749131E+01   0.000000000E+00
-0.192692171E+02  -0.374053291E+01   0.000000000E+00
-0.192682584E+02  -0.430969644E+01   0.000000000E+00
-0.192646331E+02   0.958329245E+01   0.000000000E+00
-0.192630789E+02  -0.100000000E+02   0.000000000E+00
-0.192611447E+02   0.667040492E+01   0.000000000E+00
-0.192601938E+02   0.437767705E+01   0.000000000E+00
-0.192463625E+02   0.471762438E+00   0.000000000E+00
-0.192416540E+02   0.126632690E+00   0.000000000E+00
-0.192406291E+02   0.236924410E+01   0.000000000E+00
-0.192299454E+02   0.477529827E+01   0.000000000E+00
-0.192294703E+02  -0.299727024E+01   0.000000000E+00
-0.192252504E+02   0.892786354E+01   0.000000000E+00
-0.192175957E+02   0.367794121E+01   0.000000000E+00
-0.192138211E+02  -0.787405281E+01   0.000000000E+00
-0.192069481E+02  -0.761956362E+00   0.000000000E+00
-0.192029088E+02   0.559405122E+01   0.000000000E+00
-0.192013083E+02   0.331456397E+01   0.000000000E+00
-0.191986446E+02   0.637921907E+01   0.000000000E+00
-0.191969010E+02  -0.638436530E+01   0.000000000E+00
-0.191845455E+02  -0.166738470E+00   0.000000000E+00
-0.191826309E+02   0.152852000E+01   0.000000000E+00
-0.191728259E+02  -0.270335033E+01   0.000000000E+00
-0.191697078E+02   0.921396886E+01   0.000000000E+00
-0.191540413E+02  -0.843842765E+01   0.000000000E+00
-0.191450085E+02  -0.215107944E+01   0.000000000E+00
-0.191342125E+02  -0.590884056E+01   0.000000000E+00
-0.191291272E+02  -0.925300784E+01   0.000000000E+00
-0.191275248E+02  -0.519067516E+01   0.000000000E+00
-0.191256667E+02  -0.116871924E+01   0.000000000E+00
-0.191159980E+02   0.821287111E+01   0.000000000E+00
-0.191133609E+02   0.192908322E+01   0.000000000E+00
-0.190947598E+02  -0.485130337E+01   0.000000000E+00
-0.190862954E+02  -0.726450420E+01   0.000000000E+00
-0.190830686E+02   0.978723711E+00   0.000000000E+00
-0.190823651E+02   0.100000000E+02   0.000000000E+00
-0.190707410E+02   0.398519825E+01   0.000000000E+00
-0.190523263E+02  -0.404532828E+01   0.000000000E+00
-0.190369489E+02  -0.100000000E+02   0.000000000E+00
-0.190342445E+02   0.721166943E+01   0.000000000E+00
-0.189973800E+02  -0.349646288E+01   0.000000000E+00
-0.189953283E+02   0.530864679E+01   0.000000000E+00
-0.189807486E+02   0.772187100E+01   0.000000000E+00
-0.189766999E+02  -0.182044633E+01   0.000000000E+00
-0.189734223E+02   0.859415892E+01   0.000000000E+00
-0.189642155E+02   0.620128006E+01   0.000000000E+00
-0.189608036E+02   0.687688870E+01   0.000000000E+00
-0.189587216E+02  -0.696991531E+01   0.000000000E+00
-0.189489829E+02  -0.661175018E+01   0.000000000E+00
-0.189471247E+02   0.258673289E+01   0.000000000E+00
-0.189371196E+02   0.298886292E+01   0.000000000E+00
-0.189324129E+02  -0.552321838E+01   0.000000000E+00
-0.189319080E+02  -0.316967799E+01   0.000000000E+00
-0.189289188E+02  -0.245957590E+01   0.000000000E+00
-0.189279197E+02  -0.867212794E+01   0.000000000E+00
-0.189270182E+02   0.936588982E+01   0.000000000E+00
-0.189223479E+02  -0.418028943E+00   0.000000000E+00
-0.189185258E+02   0.800239928E+01   0.000000000E+00
-0.189170197E+02  -0.805488414E+01   0.000000000E+00
-0.189148337E+02  -0.759414372E+01   0.000000000E+00
-0.189095908E+02   0.588444627E+01   0.000000000E+00
-0.189074603E+02  -0.441617187E+01   0.000000000E+00
-0.189024456E+02   0.426748929E+01   0.000000000E+00
-0.188997049E+02   0.308714362E+00   0.000000000E+00
-0.188886867E+02   0.724566231E+00   0.000000000E+00
-0.188877397E+02   0.459043590E+01   0.000000000E+00
-0.188828232E+02  -0.149906204E+01   0.000000000E+00
-0.188792970E+02   0.496768213E+01   0.000000000E+00
-0.188694925E+02  -0.587842992E+01   0.000000000E+00
-0.188604568E+02  -0.898816882E+01   0.000000000E+00
-0.188570528E+02  -0.928403678E+00   0.000000000E+00
-0.188517898E+02  -0.962490945E+01   0.000000000E+00
-0.188493351E+02   0.966481003E+01   0.000000000E+00
-0.188482026E+02   0.100000000E+02   0.000000000E+00
-0.188454205E+02   0.559294640E+01   0.000000000E+00
-0.188446816E+02  -0.624091448E+01   0.000000000E+00
-0.188434934E+02  -0.507923075E-01   0.000000000E+00
-0.188383098E+02   0.363382929E+01   0.000000000E+00
-0.188362027E+02  -0.376127614E+01   0.000000000E+00
-0.188350563E+02   0.120113969E+01   0.000000000E+00
-0.188276824E+02   0.749759871E+01   0.000000000E+00
-0.188256453E+02   0.653928863E+01   0.000000000E+00
-0.188220708E+02   0.221297751E+01   0.000000000E+00
-0.188066827E+02   0.329922163E+01   0.000000000E+00
-0.188042876E+02   0.158663006E+01   0.000000000E+00
-0.187956169E+02   0.898627730E+01   0.000000000E+00
-0.187885393E+02  -0.477836908E+01   0.000000000E+00
-0.187757934E+02  -0.281545268E+01   0.000000000E+00
-0.187748212E+02  -0.515616055E+01   0.000000000E+00
-0.187678070E+02  -0.100000000E+02   0.000000000E+00
-0.187603092E+02  -0.837523422E+01   0.000000000E+00
-0.187568001E+02  -0.120526578E+01   0.000000000E+00
-0.187537218E+02  -0.214405789E+01   0.000000000E+00
-0.187372004E+02  -0.931138792E+01   0.000000000E+00
-0.187345228E+02   0.399173940E+01   0.000000000E+00
-0.187146893E+02   0.717048268E+01   0.000000000E+00
-0.186988961E+02  -0.646659400E+00   0.000000000E+00
-0.186749992E+02  -0.685195425E+01   0.000000000E+00
-0.186636070E+02   0.533889407E+01   0.000000000E+00
-0.186630962E+02   0.827205497E+01   0.000000000E+00
-0.186601084E+02   0.277393545E+01   0.000000000E+00
-0.186548769E+02  -0.341986368E+01   0.000000000E+00
-0.186450412E+02  -0.722691823E+01   0.000000000E+00
-0.186440121E+02   0.618143093E+01   0.000000000E+00
-0.186343466E+02  -0.404341742E+01   0.000000000E+00
-0.186335328E+02   0.190487467E+01   0.000000000E+00
-0.186335200E+02   0.861545351E+01   0.000000000E+00
-0.186219802E+02   0.516203886E+00   0.000000000E+00
-0.186166940E+02  -0.782620649E+01   0.000000000E+00
-0.186040680E+02  -0.178460773E+01   0.000000000E+00
-0.186007126E+02   0.100000000E+02   0.000000000E+00
-0.185964969E+02   0.786736951E+01   0.000000000E+00
-0.185922960E+02  -0.546929018E+01   0.000000000E+00
-0.185910524E+02   0.682648551E+01   0.000000000E+00
-0.185903777E+02  -0.584526202E+01   0.000000000E+00
-0.185887669E+02   0.934907469E+01   0.000000000E+00
-0.185764208E+02  -0.309744339E+01   0.000000000E+00
-0.185675373E+02  -0.873582038E+01   0.000000000E+00
-0.185602344E+02  -0.653954383E+01   0.000000000E+00
-0.185431921E+02   0.431683953E+01   0.000000000E+00
-0.185412242E+02   0.472252159E+01   0.000000000E+00
-0.185400385E+02  -0.250423462E+01   0.000000000E+00
-0.185391781E+02   0.245885049E+01   0.000000000E+00
-0.185314605E+02   0.308403538E+01   0.000000000E+00
-0.185179284E+02  -0.461178951E+01   0.000000000E+00
-0.185164582E+02  -0.493370178E+01   0.000000000E+00
-0.185160327E+02   0.128669581E+00   0.000000000E+00
-0.185132669E+02  -0.754634876E+01   0.000000000E+00
-0.185122929E+02   0.907170917E+00   0.000000000E+00
-0.185098959E+02  -0.100000000E+02   0.000000000E+00
-0.185046086E+02  -0.284024334E+00   0.000000000E+00
-0.184962114E+02  -0.432373669E+01   0.000000000E+00
-0.184956435E+02   0.577979132E+01   0.000000000E+00
-0.184946077E+02  -0.141326389E+01   0.000000000E+00
-0.184943138E+02  -0.810413362E+01   0.000000000E+00
-0.184880861E+02  -0.620854304E+01   0.000000000E+00
-0.184752276E+02   0.966371041E+01   0.000000000E+00
-0.184733369E+02   0.344255827E+01   0.000000000E+00
-0.184730572E+02   0.131080499E+01   0.000000000E+00
-0.184695434E+02   0.749260803E+01   0.000000000E+00
-0.184628218E+02   0.505796999E+01   0.000000000E+00
-0.184621142E+02  -0.976581662E+00   0.000000000E+00
-0.184488519E+02  -0.366241609E+01   0.000000000E+00
-0.184471152E+02  -0.909919394E+01   0.000000000E+00
-0.184353430E+02   0.383679415E+01   0.000000000E+00
-0.184327591E+02  -0.956853054E+01   0.000000000E+00
-0.184181449E+02   0.713904589E+01   0.000000000E+00
-0.184150210E+02   0.162759528E+01   0.000000000E+00
-0.184129511E+02  -0.842943463E+01   0.000000000E+00
-0.184092092E+02   0.880821980E+01   0.000000000E+00
-0.184033100E+02   0.653119113E+01   0.000000000E+00
-0.183942202E+02  -0.211979051E+01   0.000000000E+00
-0.183750113E+02   0.100000000E+02   0.000000000E+00
-0.183684646E+02   0.215935389E+01   0.000000000E+00
-0.183644830E+02   0.540962768E+01   0.000000000E+00
-0.183450118E+02   0.910610297E+01   0.000000000E+00
-0.183437335E+02   0.615438876E+01   0.000000000E+00
-0.183338285E+02  -0.522353853E+01   0.000000000E+00
-0.183281543E+02  -0.689150123E+01   0.000000000E+00
-0.183235413E+02   0.278195383E+01   0.000000000E+00
-0.183140345E+02   0.539922526E+00   0.000000000E+00
-0.182925450E+02  -0.562205068E+01   0.000000000E+00
-0.182840585E+02  -0.285920095E+01   0.000000000E+00
-0.182810512E+02  -0.608737179E+00   0.000000000E+00
-0.182810251E+02  -0.328132339E+01   0.000000000E+00
-0.182759027E+02   0.845064900E+01   0.000000000E+00
-0.182680455E+02   0.780653471E+01   0.000000000E+00
-0.182555900E+02   0.812318590E+01   0.000000000E+00
-0.182487479E+02  -0.100000000E+02   0.000000000E+00
-0.182426927E+02  -0.599160352E+01   0.000000000E+00
-0.182398462E+02  -0.169775450E+01   0.000000000E+00
-0.182378565E+02   0.417002004E+01   0.000000000E+00
-0.182355103E+02  -0.389232840E+01   0.000000000E+00
-0.182298587E+02  -0.735204264E+01   0.000000000E+00
-0.182247501E+02   0.455176565E+01   0.000000000E+00
-0.182093017E+02   0.690756636E+01   0.000000000E+00
-0.182048370E+02  -0.485557211E+01   0.000000000E+00
-0.182030580E+02  -0.782046373E+01   0.000000000E+00
-0.181973329E+02   0.942292865E+01   0.000000000E+00
-0.181901235E+02  -0.416417090E+01   0.000000000E+00
-0.181828136E+02  -0.125346988E+01   0.000000000E+00
-0.181814594E+02   0.113245865E+01   0.000000000E+00
-0.181779646E+02   0.186683691E+01   0.000000000E+00
-0.181769035E+02  -0.643812644E+01   0.000000000E+00
-0.181754466E+02  -0.451035783E+01   0.000000000E+00
-0.181749656E+02   0.245037203E+00   0.000000000E+00
-0.181693154E+02  -0.248668253E+01   0.000000000E+00
-0.181660207E+02  -0.868805801E+01   0.000000000E+00
-0.181493603E+02   0.315347411E+01   0.000000000E+00
-0.181454492E+02   0.487539807E+01   0.000000000E+00
-0.181425500E+02   0.353067476E+01   0.000000000E+00
-0.181395353E+02  -0.821122793E-01   0.000000000E+00
-0.181371795E+02   0.245553442E+01   0.000000000E+00
-0.181268067E+02   0.972172861E+01   0.000000000E+00
-0.181232776E+02   0.727144283E+01   0.000000000E+00
-0.181226040E+02  -0.823043926E+01   0.000000000E+00
-0.181212433E+02  -0.902684865E+01   0.000000000E+00
-0.181135693E+02   0.100000000E+02   0.000000000E+00
-0.181095884E+02  -0.874559471E+00   0.000000000E+00
-0.181053724E+02   0.758235001E+01   0.000000000E+00
-0.181045512E+02   0.560932692E+01   0.000000000E+00
-0.180983275E+02   0.386305038E+01   0.000000000E+00
-0.180966519E+02   0.595546199E+01   0.000000000E+00
-0.180958719E+02   0.521951272E+01   0.000000000E+00
-0.180856706E+02  -0.933886902E+01   0.000000000E+00
-0.180735977E+02   0.819636863E+00   0.000000000E+00
-0.180703304E+02  -0.210218595E+01   0.000000000E+00
-0.180600455E+02   0.634615433E+01   0.000000000E+00
-0.180592928E+02  -0.348622777E+00   0.000000000E+00
-0.180588812E+02   0.148402487E+01   0.000000000E+00
-0.180549293E+02  -0.967185737E+01   0.000000000E+00
-0.180478622E+02  -0.363697131E+01   0.000000000E+00
-0.180419038E+02   0.885125000E+01   0.000000000E+00
-0.180260628E+02  -0.706143728E+01   0.000000000E+00
-0.180221183E+02  -0.541686359E+01   0.000000000E+00
-0.180107307E+02   0.670468114E+01   0.000000000E+00
-0.180052626E+02  -0.100000000E+02   0.000000000E+00
-0.180039740E+02   0.278567457E+01   0.000000000E+00
-0.179614952E+02   0.439673659E+01   0.000000000E+00
-0.179596840E+02   0.853295273E+01   0.000000000E+00
-0.179556826E+02  -0.338083299E+01   0.000000000E+00
-0.179519617E+02  -0.669388639E+01   0.000000000E+00
-0.179464576E+02  -0.609160202E+01   0.000000000E+00
-0.179438959E+02   0.216835359E+01   0.000000000E+00
-0.179432336E+02   0.920976558E+01   0.000000000E+00
-0.179404397E+02  -0.573515779E+01   0.000000000E+00
-0.179377703E+02   0.489823878E+00   0.000000000E+00
-0.179331061E+02  -0.511022478E+01   0.000000000E+00
-0.179138359E+02  -0.177060539E+01   0.000000000E+00
-0.179107055E+02  -0.765177355E+01   0.000000000E+00
-0.179008313E+02  -0.141427256E+01   0.000000000E+00
-0.178952854E+02   0.789003585E+01   0.000000000E+00
-0.178855139E+02  -0.310564915E+01   0.000000000E+00
-0.178827421E+02   0.138976073E+00   0.000000000E+00
-0.178755923E+02   0.406775902E+01   0.000000000E+00
-0.178728282E+02  -0.474457751E+01   0.000000000E+00
-0.178675462E+02  -0.850161709E+01   0.000000000E+00
-0.178619062E+02  -0.435048072E+01   0.000000000E+00
-0.178610300E+02   0.100000000E+02   0.000000000E+00
-0.178569947E+02  -0.278757149E+01   0.000000000E+00
-0.178474389E+02  -0.101688650E+01   0.000000000E+00
-0.178400128E+02   0.822840441E+01   0.000000000E+00
-0.178322007E+02  -0.393649571E+01   0.000000000E+00
-0.178178466E+02   0.710359218E+01   0.000000000E+00
-0.178145452E+02   0.112274388E+01   0.000000000E+00
-0.178139253E+02   0.747304006E+01   0.000000000E+00
-0.178127474E+02  -0.241142002E+01   0.000000000E+00
-0.178126364E+02   0.370124415E+01   0.000000000E+00
-0.178086698E+02  -0.801121681E+01   0.000000000E+00
-0.178070134E+02   0.181979679E+01   0.000000000E+00
-0.178034543E+02  -0.736207487E+01   0.000000000E+00
-0.177990474E+02   0.469478603E+01   0.000000000E+00
-0.177951122E+02   0.960205599E+01   0.000000000E+00
-0.177922499E+02   0.540112299E+01   0.000000000E+00
-0.177885094E+02   0.334339543E+01   0.000000000E+00
-0.177848701E+02  -0.571087289E+00   0.000000000E+00
-0.177826312E+02   0.578303142E+01   0.000000000E+00
-0.177822263E+02  -0.899303041E+01   0.000000000E+00
-0.177796130E+02   0.502979350E+01   0.000000000E+00
-0.177778797E+02  -0.100000000E+02   0.000000000E+00
-0.177632356E+02   0.614556536E+01   0.000000000E+00
-0.177561537E+02   0.299646762E+01   0.000000000E+00
-0.177339953E+02  -0.952952739E+01   0.000000000E+00
-0.177305640E+02  -0.632694926E+01   0.000000000E+00
-0.177292293E+02   0.252565714E+01   0.000000000E+00
-0.177273996E+02   0.650074822E+01   0.000000000E+00
-0.177270591E+02  -0.203847788E+01   0.000000000E+00
-0.177210810E+02  -0.700923307E+01   0.000000000E+00
-0.177082977E+02   0.149229384E+01   0.000000000E+00
-0.176780595E+02   0.715967822E+00   0.000000000E+00
-0.176767092E+02   0.860350091E+01   0.000000000E+00
-0.176764805E+02   0.682994551E+01   0.000000000E+00
-0.176650473E+02   0.895895580E+01   0.000000000E+00
-0.176391302E+02  -0.166666174E+00   0.000000000E+00
-0.176353926E+02  -0.543514882E+01   0.000000000E+00
-0.176330680E+02   0.432304906E+01   0.000000000E+00
-0.176309965E+02  -0.589748084E+01   0.000000000E+00
-0.176180667E+02   0.283659870E+00   0.000000000E+00
-0.176113145E+02   0.100000000E+02   0.000000000E+00
-0.176022656E+02  -0.829687078E+01   0.000000000E+00
-0.176018977E+02  -0.351129061E+01   0.000000000E+00
-0.175979806E+02  -0.162966082E+01   0.000000000E+00
-0.175869690E+02  -0.667904465E+01   0.000000000E+00
-0.175844202E+02  -0.504342963E+01   0.000000000E+00
-0.175832990E+02   0.769075175E+01   0.000000000E+00
-0.175830656E+02   0.931413940E+01   0.000000000E+00
-0.175783568E+02   0.212730706E+01   0.000000000E+00
-0.175780890E+02  -0.121865142E+01   0.000000000E+00
-0.175636601E+02  -0.462182668E+01   0.000000000E+00
-0.175433179E+02  -0.834065935E+00   0.000000000E+00
-0.175340320E+02   0.397661266E+01   0.000000000E+00
-0.175333761E+02  -0.425232071E+01   0.000000000E+00
-0.175327927E+02  -0.865851631E+01   0.000000000E+00
-0.175272192E+02  -0.100000000E+02   0.000000000E+00
-0.175101452E+02   0.800074847E+01   0.000000000E+00
-0.175060389E+02  -0.268114552E+01   0.000000000E+00
-0.175038667E+02   0.558521600E+01   0.000000000E+00
-0.175036469E+02  -0.768731297E+01   0.000000000E+00
-0.174879043E+02  -0.390118709E+01   0.000000000E+00
-0.174851801E+02  -0.925932954E+01   0.000000000E+00
-0.174816694E+02   0.283548004E+01   0.000000000E+00
-0.174808944E+02   0.361938956E+01   0.000000000E+00
-0.174790589E+02   0.991332617E+00   0.000000000E+00
-0.174729071E+02  -0.309961852E+01   0.000000000E+00
-0.174680779E+02   0.737199484E+01   0.000000000E+00
-0.174675416E+02  -0.230057415E+01   0.000000000E+00
-0.174667073E+02   0.519493495E+01   0.000000000E+00
-0.174651717E+02  -0.729929258E+01   0.000000000E+00
-0.174510184E+02   0.597517209E+01   0.000000000E+00
-0.174455969E+02   0.132493942E+01   0.000000000E+00
-0.174373823E+02   0.635506151E+01   0.000000000E+00
-0.174311321E+02  -0.195118929E+01   0.000000000E+00
-0.174292521E+02   0.174782382E+01   0.000000000E+00
-0.174256523E+02   0.455179002E+01   0.000000000E+00
-0.174158297E+02  -0.696453236E+01   0.000000000E+00
-0.174080059E+02   0.325234344E+01   0.000000000E+00
-0.174066114E+02   0.485722798E+01   0.000000000E+00
-0.174022318E+02   0.965622175E+01   0.000000000E+00
-0.174003339E+02   0.708199916E+01   0.000000000E+00
-0.173995749E+02   0.833488367E+01   0.000000000E+00
-0.173975581E+02   0.671636821E+01   0.000000000E+00
-0.173825038E+02  -0.960990963E+01   0.000000000E+00
-0.173776448E+02   0.473085648E+00   0.000000000E+00
-0.173759688E+02  -0.801971996E+01   0.000000000E+00
-0.173635671E+02  -0.645759057E+01   0.000000000E+00
-0.173627850E+02  -0.566882777E+01   0.000000000E+00
-0.173616806E+02   0.244070351E+01   0.000000000E+00
-0.173596320E+02   0.871572993E+01   0.000000000E+00
-0.173548230E+02  -0.894143694E+01   0.000000000E+00
-0.173465291E+02   0.100000000E+02   0.000000000E+00
-0.173290818E+02  -0.442787293E+00   0.000000000E+00
-0.173290391E+02  -0.140946416E+01   0.000000000E+00
-0.173234150E+02  -0.614022018E+01   0.000000000E+00
-0.173192938E+02  -0.836919816E+01   0.000000000E+00
-0.173027919E+02  -0.487215074E+01   0.000000000E+00
-0.173009289E+02   0.906274561E+01   0.000000000E+00
-0.172818869E+02   0.140711836E+00   0.000000000E+00
-0.172715100E+02  -0.100000000E+02   0.000000000E+00
-0.172566412E+02   0.424727530E+01   0.000000000E+00
-0.172552951E+02  -0.763090050E+00   0.000000000E+00
-0.172416470E+02   0.753891128E+00   0.000000000E+00
-0.172359577E+02   0.768217757E+01   0.000000000E+00
-0.172256394E+02   0.936035107E+01   0.000000000E+00
-0.172228168E+02   0.537563056E+01   0.000000000E+00
-0.172167026E+02  -0.107462008E+01   0.000000000E+00
-0.172124121E+02  -0.343102719E+01   0.000000000E+00
-0.172122532E+02  -0.171855381E+01   0.000000000E+00
-0.172102191E+02   0.211155483E+01   0.000000000E+00
-0.172066146E+02  -0.528068447E+01   0.000000000E+00
-0.172052797E+02  -0.373968499E+01   0.000000000E+00
-0.171936572E+02  -0.412723149E+01   0.000000000E+00
-0.171912639E+02  -0.450127539E+01   0.000000000E+00
-0.171911803E+02  -0.141581412E+00   0.000000000E+00
-0.171847087E+02   0.569112199E+01   0.000000000E+00
-0.171845670E+02  -0.748052796E+01   0.000000000E+00
-0.171766319E+02  -0.674717763E+01   0.000000000E+00
-0.171749290E+02  -0.285248390E+01   0.000000000E+00
-0.171716727E+02   0.302165476E+01   0.000000000E+00
-0.171688731E+02   0.271034152E+01   0.000000000E+00
-0.171661687E+02  -0.245961353E+01   0.000000000E+00
-0.171653478E+02   0.389443852E+01   0.000000000E+00
-0.171596665E+02   0.108374260E+01   0.000000000E+00
-0.171511592E+02   0.355012264E+01   0.000000000E+00
-0.171429883E+02   0.626374253E+01   0.000000000E+00
-0.171365619E+02  -0.709692027E+01   0.000000000E+00
-0.171354672E+02   0.799914907E+01   0.000000000E+00
-0.171334325E+02  -0.588315835E+01   0.000000000E+00
-0.171329173E+02   0.144723628E+01   0.000000000E+00
-0.171318270E+02  -0.208133757E+01   0.000000000E+00
-0.171235515E+02  -0.862152546E+01   0.000000000E+00
-0.171175266E+02   0.660297655E+01   0.000000000E+00
-0.171146572E+02  -0.926170459E+01   0.000000000E+00
-0.171134256E+02   0.100000000E+02   0.000000000E+00
-0.170974967E+02   0.596668240E+01   0.000000000E+00
-0.170973519E+02   0.696696287E+01   0.000000000E+00
-0.170905410E+02   0.173930344E+01   0.000000000E+00
-0.170753390E+02  -0.966943095E+01   0.000000000E+00
-0.170613373E+02   0.502665424E+01   0.000000000E+00
-0.170563974E+02   0.737230530E+01   0.000000000E+00
-0.170560185E+02  -0.785221892E+01   0.000000000E+00
-0.170487646E+02   0.458631859E+01   0.000000000E+00
-0.170486411E+02   0.453539907E+00   0.000000000E+00
-0.170291735E+02   0.886279640E+01   0.000000000E+00
-0.170282086E+02  -0.100000000E+02   0.000000000E+00
-0.170236190E+02  -0.141801494E+01   0.000000000E+00
-0.170233355E+02   0.856362908E+01   0.000000000E+00
-0.170147459E+02  -0.825878907E+01   0.000000000E+00
-0.170112973E+02   0.960553708E+01   0.000000000E+00
-0.170003150E+02   0.826643421E+01   0.000000000E+00
-0.169894942E+02  -0.646338958E+01   0.000000000E+00
-0.169883678E+02  -0.321809754E+01   0.000000000E+00
-0.169852840E+02  -0.891212758E+01   0.000000000E+00
-0.169790849E+02  -0.488809423E+01   0.000000000E+00