TITLE = "Two phase example test of non-darcy flow 2D"
FILETYPE = "GRID"
VARIABLES = "X coordinate (m)" "Y coordinate (m)"
ZONE T = "GRID", N =      441, E =      800, DATAPACKING = POINT, ZONETYPE = FETRIANGLE, STRANDID = 0, SOLUTIONTIME = 0.
 0.000000000E+00   0.000000000E+00
 0.100000000E+01   0.000000000E+00
 0.200000000E+01   0.000000000E+00
 0.300000000E+01   0.000000000E+00
 0.400000000E+01   0.000000000E+00
 0.500000000E+01   0.000000000E+00
 0.600000000E+01   0.000000000E+00
 0.700000000E+01   0.000000000E+00
 0.800000000E+01   0.000000000E+00
 0.900000000E+01   0.000000000E+00
 0.100000000E+02   0.000000000E+00
 0.110000000E+02   0.000000000E+00
 0.120000000E+02   0.000000000E+00
 0.130000000E+02   0.000000000E+00
 0.140000000E+02   0.000000000E+00
 0.150000000E+02   0.000000000E+00
 0.160000000E+02   0.000000000E+00
 0.170000000E+02   0.000000000E+00
 0.180000000E+02   0.000000000E+00
 0.190000000E+02   0.000000000E+00
 0.200000000E+02   0.000000000E+00
 0.000000000E+00   0.100000000E+01
 0.102821018E+01   0.102240182E+01
 0.206772614E+01   0.102877678E+01
 0.311997766E+01   0.104140620E+01
 0.414205735E+01   0.100787255E+01
 0.520812225E+01   0.959642098E+00
 0.625622083E+01   0.984758475E+00
 0.726757242E+01   0.109969082E+01
 0.829803699E+01   0.941972017E+00
 0.931310188E+01   0.936336305E+00
 0.101896369E+02   0.104119122E+01
 0.109466008E+02   0.127294923E+01
 0.117208171E+02   0.105534300E+01
 0.125357490E+02   0.838333520E+00
 0.133927576E+02   0.102114595E+01
 0.143776183E+02   0.101343015E+01
 0.154087855E+02   0.101480166E+01
 0.164548406E+02   0.100459775E+01
 0.175594778E+02   0.971456826E+00
 0.188227844E+02   0.904842671E+00
 0.200000000E+02   0.100000000E+01
 0.000000000E+00   0.200000000E+01
 0.108168771E+01   0.203011068E+01
 0.221358276E+01   0.201490307E+01
 0.331563059E+01   0.209795377E+01
 0.441879764E+01   0.191348823E+01
 0.546607032E+01   0.190420691E+01
 0.634669953E+01   0.204643691E+01
 0.710882181E+01   0.230103339E+01
 0.792174774E+01   0.205990751E+01
 0.873510275E+01   0.181365867E+01
 0.950904079E+01   0.205284027E+01
 0.104015847E+02   0.217508472E+01
 0.114435702E+02   0.216471201E+01
 0.125120539E+02   0.196740458E+01
 0.136263264E+02   0.199652158E+01
 0.147259992E+02   0.198637726E+01
 0.158137621E+02   0.201506948E+01
 0.168726087E+02   0.196590994E+01
 0.179949235E+02   0.185347208E+01
 0.190629925E+02   0.187319395E+01
 0.200000000E+02   0.200000000E+01
 0.000000000E+00   0.300000000E+01
 0.127883230E+01   0.295081525E+01
 0.231183081E+01   0.302160211E+01
 0.313531126E+01   0.327346373E+01
 0.398621815E+01   0.303209769E+01
 0.483059426E+01   0.278817611E+01
 0.560296757E+01   0.303854691E+01
 0.649749103E+01   0.318205338E+01
 0.754676472E+01   0.318202453E+01
 0.860349449E+01   0.299184416E+01
 0.966268253E+01   0.308725230E+01
 0.107631150E+02   0.310270215E+01
 0.118697482E+02   0.306726475E+01
 0.128979467E+02   0.297667921E+01
 0.140084767E+02   0.292422133E+01
 0.151167142E+02   0.294763180E+01
 0.162184036E+02   0.305512727E+01
 0.173147138E+02   0.284413053E+01
 0.183677128E+02   0.281695984E+01
 0.192473646E+02   0.297949350E+01
 0.200000000E+02   0.300000000E+01
 0.000000000E+00   0.400000000E+01
 0.746866208E+00   0.395411664E+01
 0.162669404E+01   0.401966639E+01
 0.254084118E+01   0.415528945E+01
 0.359526655E+01   0.415858959E+01
 0.465835357E+01   0.397453148E+01
 0.571682041E+01   0.408299221E+01
 0.681837899E+01   0.411422149E+01
 0.791828469E+01   0.409689889E+01
 0.892634921E+01   0.403820325E+01
 0.100308909E+02   0.400767314E+01
 0.111447913E+02   0.401854105E+01
 0.122290547E+02   0.409728808E+01
 0.133055210E+02   0.387719005E+01
 0.143770869E+02   0.385284967E+01
 0.153095818E+02   0.398184868E+01
 0.161351793E+02   0.421604751E+01
 0.169931321E+02   0.395570255E+01
 0.178616376E+02   0.370745304E+01
 0.187609523E+02   0.394833226E+01
 0.200000000E+02   0.400000000E+01
 0.000000000E+00   0.500000000E+01
 0.886610554E+00   0.503319666E+01
 0.183213315E+01   0.509205251E+01
 0.288232473E+01   0.511267251E+01
 0.395214391E+01   0.509863804E+01
 0.495452679E+01   0.503727813E+01
 0.605746943E+01   0.501487877E+01
 0.716686340E+01   0.504191144E+01
 0.823898910E+01   0.514312501E+01
 0.931436976E+01   0.494043681E+01
 0.103852324E+02   0.491929988E+01
 0.113088632E+02   0.504079401E+01
 0.121124924E+02   0.526912078E+01
 0.129515448E+02   0.500230846E+01
 0.137894715E+02   0.473691205E+01
 0.145991567E+02   0.496907589E+01
 0.155374326E+02   0.509228778E+01
 0.166353637E+02   0.506560364E+01
 0.177611877E+02   0.484882186E+01
 0.189207161E+02   0.488119361E+01
 0.200000000E+02   0.500000000E+01
 0.000000000E+00   0.600000000E+01
 0.997839855E+00   0.605165448E+01
 0.210064606E+01   0.603346551E+01
 0.316832172E+01   0.607813048E+01
 0.424058438E+01   0.615379434E+01
 0.532089641E+01   0.594859482E+01
 0.639064789E+01   0.593666554E+01
 0.730858480E+01   0.607175856E+01
 0.810684259E+01   0.631109000E+01
 0.894632009E+01   0.605508784E+01
 0.978530697E+01   0.579584852E+01
 0.105872200E+02   0.602849344E+01
 0.115121990E+02   0.615055293E+01
 0.125888737E+02   0.612339423E+01
 0.136730402E+02   0.590963727E+01
 0.147617104E+02   0.599364049E+01
 0.158925342E+02   0.600062257E+01
 0.170183831E+02   0.595876553E+01
 0.180378437E+02   0.587229710E+01
 0.190677925E+02   0.587090851E+01
 0.200000000E+02   0.600000000E+01
 0.000000000E+00   0.700000000E+01
 0.129631737E+01   0.690580649E+01
 0.232598699E+01   0.701718955E+01
 0.328560637E+01   0.709545564E+01
 0.409482262E+01   0.732624573E+01
 0.493928254E+01   0.706855517E+01
 0.578041580E+01   0.681227857E+01
 0.657778775E+01   0.705274934E+01
 0.749877289E+01   0.718520977E+01
 0.857294250E+01   0.716917883E+01
 0.965594434E+01   0.696354936E+01
 0.107383179E+02   0.705105318E+01
 0.118610381E+02   0.706056172E+01
 0.129798560E+02   0.702135865E+01
 0.140053284E+02   0.694761937E+01
 0.151270289E+02   0.690781618E+01
 0.162514883E+02   0.691747264E+01
 0.173263138E+02   0.701420147E+01
 0.183580019E+02   0.685011427E+01
 0.192942213E+02   0.690542116E+01
 0.200000000E+02   0.700000000E+01
 0.000000000E+00   0.800000000E+01
 0.777941982E+00   0.775068475E+01
 0.162622969E+01   0.797974201E+01
 0.254902994E+01   0.808148539E+01
 0.348917137E+01   0.820483437E+01
 0.456388368E+01   0.818702675E+01
 0.564319050E+01   0.798436411E+01
 0.672126562E+01   0.808037843E+01
 0.784087745E+01   0.809902915E+01
 0.895769316E+01   0.806804222E+01
 0.998105382E+01   0.799997994E+01
 0.110995663E+02   0.796371476E+01
 0.122223814E+02   0.797400436E+01
 0.133058525E+02   0.805919146E+01
 0.143927172E+02   0.784612689E+01
 0.154723821E+02   0.782185126E+01
 0.163999714E+02   0.794988897E+01
 0.172138081E+02   0.818825559E+01
 0.180769266E+02   0.795889089E+01
 0.189503076E+02   0.776445899E+01
 0.200000000E+02   0.800000000E+01
 0.000000000E+00   0.900000000E+01
 0.841006422E+00   0.892910346E+01
 0.177368584E+01   0.906412701E+01
 0.276460142E+01   0.912532138E+01
 0.384864677E+01   0.912883339E+01
 0.494934177E+01   0.909432159E+01
 0.596447380E+01   0.902867512E+01
 0.707842572E+01   0.899791838E+01
 0.819860269E+01   0.901459736E+01
 0.928018150E+01   0.910565343E+01
 0.103654118E+02   0.889711552E+01
 0.114424334E+02   0.887436520E+01
 0.123668578E+02   0.899823881E+01
 0.131678743E+02   0.923055205E+01
 0.140126048E+02   0.896650743E+01
 0.148585222E+02   0.870311891E+01
 0.156614517E+02   0.893553811E+01
 0.165934875E+02   0.905837231E+01
 0.176960667E+02   0.903875766E+01
 0.188748685E+02   0.885785535E+01
 0.200000000E+02   0.900000000E+01
 0.000000000E+00   0.100000000E+02
 0.956096340E+00   0.100673022E+02
 0.196419597E+01   0.100908158E+02
 0.307354968E+01   0.100430830E+02
 0.418639769E+01   0.100496380E+02
 0.526158255E+01   0.101377644E+02
 0.634350575E+01   0.993019729E+01
 0.741827153E+01   0.991097453E+01
 0.834140635E+01   0.100386386E+02
 0.914227813E+01   0.102734899E+02
 0.998643347E+01   0.100134521E+02
 0.108305817E+02   0.975250161E+01
 0.116317439E+02   0.998568292E+01
 0.125554621E+02   0.101105466E+02
 0.136318307E+02   0.100871288E+02
 0.147164017E+02   0.987466031E+01
 0.157952045E+02   0.995853466E+01
 0.169124118E+02   0.996141599E+01
 0.180265434E+02   0.991076021E+01
 0.190394393E+02   0.993275697E+01
 0.200000000E+02   0.100000000E+02
 0.000000000E+00   0.110000000E+02
 0.111932181E+01   0.111424665E+02
 0.229208227E+01   0.109638132E+02
 0.338986057E+01   0.109469872E+02
 0.431801490E+01   0.110725548E+02
 0.511800043E+01   0.113073869E+02
 0.596234244E+01   0.110476261E+02
 0.680598235E+01   0.107873732E+02
 0.760635745E+01   0.110223387E+02
 0.853044723E+01   0.111494855E+02
 0.960730395E+01   0.111293839E+02
 0.106927275E+02   0.109212872E+02
 0.117742026E+02   0.110103440E+02
 0.128955580E+02   0.110231591E+02
 0.140118675E+02   0.109873449E+02
 0.150302774E+02   0.109169283E+02
 0.161350873E+02   0.108778586E+02
 0.172234849E+02   0.108779197E+02
 0.182186505E+02   0.109368815E+02
 0.191553417E+02   0.110709125E+02
 0.200000000E+02   0.110000000E+02
 0.000000000E+00   0.120000000E+02
 0.104318121E+01   0.122361721E+02
 0.191182654E+01   0.120425693E+02
 0.277079838E+01   0.118149751E+02
 0.358049786E+01   0.120548631E+02
 0.450418446E+01   0.121851763E+02
 0.558102759E+01   0.121641070E+02
 0.666706244E+01   0.119555428E+02
 0.775004042E+01   0.120454906E+02
 0.887254568E+01   0.120606537E+02
 0.999047641E+01   0.120276644E+02
 0.110132860E+02   0.119598070E+02
 0.121307551E+02   0.119256584E+02
 0.132524428E+02   0.119393455E+02
 0.143337723E+02   0.120296533E+02
 0.154177043E+02   0.118217203E+02
 0.164966439E+02   0.118000066E+02
 0.174408176E+02   0.119207680E+02
 0.183674404E+02   0.120208526E+02
 0.192191930E+02   0.122494119E+02
 0.200000000E+02   0.120000000E+02
 0.000000000E+00   0.130000000E+02
 0.701002843E+00   0.130946348E+02
 0.163155738E+01   0.131504661E+02
 0.265706179E+01   0.129879065E+02
 0.372605090E+01   0.130864685E+02
 0.484610223E+01   0.130980782E+02
 0.596534415E+01   0.130608930E+02
 0.699080513E+01   0.129915579E+02
 0.810973350E+01   0.129591751E+02
 0.923149553E+01   0.129753524E+02
 0.103119827E+02   0.130667953E+02
 0.113954030E+02   0.128590839E+02
 0.124715586E+02   0.128380815E+02
 0.133952460E+02   0.129652982E+02
 0.141959484E+02   0.132011814E+02
 0.150411279E+02   0.129409613E+02
 0.158893377E+02   0.126800535E+02
 0.167021611E+02   0.129081306E+02
 0.176657233E+02   0.129840417E+02
 0.186993497E+02   0.130942480E+02
 0.200000000E+02   0.130000000E+02
 0.000000000E+00   0.140000000E+02
 0.925852449E+00   0.141289509E+02
 0.194865568E+01   0.141285629E+02
 0.296099335E+01   0.140434182E+02
 0.408062865E+01   0.140023966E+02
 0.520676593E+01   0.140098512E+02
 0.629295334E+01   0.140948138E+02
 0.737858572E+01   0.138884642E+02
 0.845486060E+01   0.138713652E+02
 0.937727494E+01   0.140011409E+02
 0.101752577E+02   0.142376955E+02
 0.110163475E+02   0.139769353E+02
 0.118595625E+02   0.137153752E+02
 0.126600051E+02   0.139499734E+02
 0.135829560E+02   0.140786226E+02
 0.146582022E+02   0.140610068E+02
 0.157440799E+02   0.138512973E+02
 0.168211465E+02   0.139236972E+02
 0.178928320E+02   0.139665827E+02
 0.189992035E+02   0.139477580E+02
 0.200000000E+02   0.140000000E+02
 0.000000000E+00   0.150000000E+02
 0.107140117E+01   0.151192094E+02
 0.222162023E+01   0.151530078E+02
 0.333912760E+01   0.149363643E+02
 0.443018407E+01   0.149088419E+02
 0.536239260E+01   0.150298090E+02
 0.616649843E+01   0.152597100E+02
 0.700825168E+01   0.150008850E+02
 0.784933025E+01   0.147449110E+02
 0.865063958E+01   0.149848093E+02
 0.956879143E+01   0.151169842E+02
 0.106381697E+02   0.150967253E+02
 0.117217277E+02   0.148833668E+02
 0.128020494E+02   0.149749099E+02
 0.139187091E+02   0.149953228E+02
 0.150279443E+02   0.149679460E+02
 0.160354821E+02   0.149033924E+02
 0.171093923E+02   0.148873974E+02
 0.181629314E+02   0.149070992E+02
 0.191111738E+02   0.149660309E+02
 0.200000000E+02   0.150000000E+02
 0.000000000E+00   0.160000000E+02
 0.122924702E+01   0.160538188E+02
 0.212133652E+01   0.162952845E+02
 0.298265286E+01   0.160463482E+02
 0.383393843E+01   0.157848013E+02
 0.465181355E+01   0.160168015E+02
 0.557472904E+01   0.161412983E+02
 0.663784820E+01   0.161103534E+02
 0.772400561E+01   0.159107068E+02
 0.880040852E+01   0.160178790E+02
 0.990464727E+01   0.160394547E+02
 0.110225897E+02   0.159903017E+02
 0.120445262E+02   0.159200028E+02
 0.131544311E+02   0.158956879E+02
 0.142636961E+02   0.159219514E+02
 0.153284410E+02   0.160269174E+02
 0.163955600E+02   0.158413142E+02
 0.174530849E+02   0.158436876E+02
 0.183697544E+02   0.159791612E+02
 0.192515380E+02   0.160453350E+02
 0.200000000E+02   0.160000000E+02
 0.000000000E+00   0.170000000E+02
 0.746954769E+00   0.170221512E+02
 0.162004246E+01   0.171856357E+02
 0.266515275E+01   0.171587853E+02
 0.375078508E+01   0.169462834E+02
 0.483990971E+01   0.170506589E+02
 0.593092877E+01   0.170659183E+02
 0.702124214E+01   0.169921971E+02
 0.805946952E+01   0.169572761E+02
 0.913947012E+01   0.169669323E+02
 0.102701947E+02   0.169424864E+02
 0.113541428E+02   0.170207211E+02
 0.124240888E+02   0.168260556E+02
 0.134818152E+02   0.168220643E+02
 0.143827662E+02   0.169627752E+02
 0.151593808E+02   0.172117525E+02
 0.160057778E+02   0.169671686E+02
 0.168584988E+02   0.167254882E+02
 0.176843110E+02   0.169770042E+02
 0.187191728E+02   0.170480911E+02
 0.200000000E+02   0.170000000E+02
 0.000000000E+00   0.180000000E+02
 0.931283791E+00   0.181288352E+02
 0.199292022E+01   0.181499074E+02
 0.310751367E+01   0.180377293E+02
 0.415628718E+01   0.179879849E+02
 0.522832525E+01   0.180149740E+02
 0.629580160E+01   0.179961253E+02
 0.733498999E+01   0.179629404E+02
 0.838060101E+01   0.179576157E+02
 0.951225685E+01   0.178507658E+02
 0.104446642E+02   0.179551690E+02
 0.112370631E+02   0.181897064E+02
 0.120553997E+02   0.179433029E+02
 0.128725194E+02   0.177020191E+02
 0.136412335E+02   0.179542846E+02
 0.145257839E+02   0.180955205E+02
 0.155754851E+02   0.180854321E+02
 0.166803197E+02   0.179005680E+02
 0.177841021E+02   0.179837967E+02
 0.189172579E+02   0.179690199E+02
 0.200000000E+02   0.180000000E+02
 0.000000000E+00   0.190000000E+02
 0.117302879E+01   0.190977769E+02
 0.243239168E+01   0.190317415E+02
 0.353357184E+01   0.189987546E+02
 0.457722307E+01   0.189891520E+02
 0.561100165E+01   0.189918375E+02
 0.661553379E+01   0.189809370E+02
 0.756393834E+01   0.189624598E+02
 0.837654377E+01   0.191306299E+02
 0.904659776E+01   0.187678362E+02
 0.980145575E+01   0.189664605E+02
 0.106769696E+02   0.190655365E+02
 0.116922993E+02   0.190578591E+02
 0.127239601E+02   0.189001021E+02
 0.137385899E+02   0.190149531E+02
 0.147884814E+02   0.190396261E+02
 0.158555694E+02   0.189911393E+02
 0.168784017E+02   0.189576031E+02
 0.179312865E+02   0.189704375E+02
 0.189713132E+02   0.189771371E+02
 0.200000000E+02   0.190000000E+02
 0.000000000E+00   0.200000000E+02
 0.100000000E+01   0.200000000E+02
 0.200000000E+01   0.200000000E+02
 0.300000000E+01   0.200000000E+02
 0.400000000E+01   0.200000000E+02
 0.500000000E+01   0.200000000E+02
 0.600000000E+01   0.200000000E+02
 0.700000000E+01   0.200000000E+02
 0.800000000E+01   0.200000000E+02
 0.900000000E+01   0.200000000E+02
 0.100000000E+02   0.200000000E+02
 0.110000000E+02   0.200000000E+02
 0.120000000E+02   0.200000000E+02
 0.130000000E+02   0.200000000E+02
 0.140000000E+02   0.200000000E+02
 0.150000000E+02   0.200000000E+02
 0.160000000E+02   0.200000000E+02
 0.170000000E+02   0.200000000E+02
 0.180000000E+02   0.200000000E+02
 0.190000000E+02   0.200000000E+02
 0.200000000E+02   0.200000000E+02
      47      27      48
      90      70      91
     359     337     338
      53      31      32
      22      23      43
     212     213     233
      45      25      46
     358     359     379
      65      45      66
      74      54      75
     130     110     131
     175     155     176
       1       2      22
      56      55      34
     141     121     142
     260     240     261
     176     155     156
      88      89     109
     387     409     408
     209     189     210
      86      87     107
     362     342     363
     346     326     347
     159     139     160
     141     140     119
      91      71      92
     215     195     216
     175     174     153
      87      88     108
      18      19      40
      87     108     107
     345     325     346
     226     206     227
     244     224     245
     290     291     311
     261     241     262
     436     416     437
     258     259     279
     232     211     212
     291     269     270
     338     337     317
     106     107     127
     408     409     430
     370     392     391
     396     395     374
     391     392     413
     381     361     382
     260     259     238
     212     192     213
     256     257     277
     277     278     298
     175     154     155
     353     375     374
      56      36      57
     396     374     375
     158     138     159
      73      53      74
      73      72      51
      25       5      26
       2       3      23
      65      66      87
       2      23      22
     319     341     340
     142     122     143
      39      38      17
     226     225     204
     243     223     244
     176     156     177
     328     308     329
     363     343     364
      90      89      68
      86     107     106
     340     341     362
     206     184     185
     143     122     123
     227     206     207
     227     207     228
      74      53      54
     158     157     136
      91      70      71
     177     156     157
     318     317     297
     302     324     323
     382     361     362
     295     275     296
     278     279     299
     329     308     309
     159     138     139
     243     242     221
     396     375     376
     235     215     236
     279     280     300
     323     324     345
     285     307     306
     423     422     401
     331     311     332
     332     312     333
     244     223     224
     328     327     306
     347     326     327
     323     345     344
     328     306     307
     268     290     289
      26       6      27
     289     290     311
      19      20      41
     103     104     124
      57      37      58
     251     273     272
      75      54      55
     272     273     294
      92      71      72
      28       8      29
      88     109     108
       3       4      24
     125     105     126
     234     256     255
     255     256     277
      57      36      37
     160     139     140
     217     239     238
     224     202     203
      70      48      49
     255     277     276
     171     172     192
       3      24      23
     107     108     128
     124     123     102
     142     121     122
     245     224     225
     138     116     117
     262     241     242
     155     133     134
     258     279     278
     364     343     344
     171     192     191
     275     253     254
     416     396     417
     289     311     310
     329     309     330
     182     161     162
     240     218     219
     261     240     241
     363     342     343
     340     362     361
     254     253     233
     260     238     239
     308     286     287
     393     371     372
     300     280     301
     346     325     326
     410     388     389
     325     303     304
     200     222     221
     243     221     222
      25      26      46
     183     205     204
      42      41      20
      18      40      39
      58      37      38
      59      39      60
      56      35      36
      97      96      76
      73      52      53
     114     113      93
      90      69      70
     150     130     151
     127     128     148
     108     109     129
     121      99     100
     207     185     186
     141     120     121
     203     202     182
     158     137     138
     179     158     159
     213     193     214
     255     254     233
     190     169     191
     172     173     193
     188     189     209
     209     208     187
     226     205     206
     267     266     246
     243     222     223
     284     283     263
     260     239     240
     320     300     321
     296     275     276
     257     258     278
     314     294     315
     394     372     373
     330     309     310
     291     292     312
     328     307     308
     369     368     348
     345     324     325
     427     405     406
     362     341     342
     402     403     424
     417     396     397
     430     410     431
     391     413     412
     226     204     205
     413     392     393
     431     410     411
     431     411     432
     386     385     365
      49      29      50
      66      46      67
      23      24      44
     166     188     187
     122     100     101
     103      81      82
     139     117     118
      78      77      57
     156     134     135
      95      94      74
     151     131     152
     112     111      91
     109     110     130
     149     129     150
     144     124     145
     146     145     125
     204     203     182
     163     162     142
     180     159     160
     222     200     201
     214     194     215
     236     216     237
     172     193     192
     173     174     194
     229     209     230
     228     207     208
     309     287     288
     248     247     227
     326     304     305
     265     264     244
     321     301     322
     282     281     261
     257     278     277
     319     299     320
     333     313     334
     272     294     293
     291     312     311
     292     293     313
     411     389     390
     350     349     329
     387     386     366
     367     366     346
     209     187     188
     384     383     363
     379     380     400
     149     171     170
     415     395     416
     408     430     429
     414     394     415
     430     409     410
     432     411     412
     170     171     191
     132     154     153
      28      27       7
      44      24      45
     175     153     154
      61      60      40
      62      61      41
     120      98      99
      80      79      59
     137     115     116
      77      76      56
     154     132     133
      94      93      73
     153     152     131
     111     110      90
     104     125     124
     104     105     125
     205     184     206
     165     164     144
     181     160     161
     162     161     141
     197     196     176
     239     217     218
     173     194     193
     194     174     195
     230     210     231
     115     137     136
     290     268     269
     250     249     229
     307     285     286
     247     246     226
     324     302     303
     264     263     243
     323     322     301
     281     280     260
     295     274     275
     316     295     296
     292     313     312
     334     314     335
     392     370     371
     352     351     331
     409     387     388
     349     348     328
     426     404     405
     366     365     345
     359     380     379
     359     360     380
     397     376     377
     396     376     397
     414     393     394
     413     393     414
     158     136     137
     415     394     395
      98     120     119
      36      14      15
      64      44      65
      64      65      86
      19      41      40
      42      20      21
      79      78      58
      59      60      80
      75      55      76
      76      55      56
      92      72      93
      93      72      73
     109      89     110
     110      89      90
     146     126     147
     141     119     120
     164     163     143
     144     145     165
     160     140     161
     161     140     141
     177     157     178
     178     157     158
     195     174     175
     234     214     235
     211     190     191
     213     214     234
     249     248     228
     229     230     250
     245     225     246
     246     225     226
     262     242     263
     263     242     243
     279     259     280
     280     259     260
     317     316     296
      81     103     102
     353     333     354
     354     334     355
     351     350     330
     331     332     352
     347     327     348
     348     327     328
     364     344     365
     365     344     345
     360     381     380
     360     361     381
     398     377     378
     397     377     398
     416     395     396
     398     378     399
     432     412     433
     434     414     435
     124     102     103
      32      12      33
       4      25      24
       4       5      25
      62      42      63
     106      85      86
      38      59      58
      38      39      59
     119     118      97
      96      95      75
     136     135     114
     113     112      92
     131     110     111
     150     151     172
      85      64      86
      47      69      68
     123     144     143
     123     124     144
     205     183     184
     223     201     202
     199     198     178
     198     197     177
     196     195     175
     238     237     216
     191     212     211
     191     192     212
     208     229     228
     208     209     229
     289     288     267
     266     265     245
     306     305     284
     283     282     262
     301     280     281
     320     321     342
     276     297     296
     276     277     297
     293     314     313
     293     294     314
     310     331     330
     310     311     331
     391     390     369
     368     367     347
     428     406     407
     385     384     364
     383     382     362
     380     381     401
     437     416     417
      90      68      69
     435     414     415
     417     397     418
     418     397     398
     433     412     413
      51      50      29
      52      30      31
      49      48      28
       5       6      26
      43      44      64
      65      87      86
      60      39      40
     104      82      83
      77      56      57
     102     101      80
      94      73      74
      97      76      77
     111      90      91
     114      93      94
      30      52      51
     127     107     128
     145     124     125
     188     166     167
     162     141     142
     187     186     165
     179     178     158
     241     219     220
     196     175     176
     199     178     179
     234     235     256
     192     193     213
     292     270     271
     209     210     230
     247     226     227
     271     251     272
     264     243     244
     267     246     247
     281     260     261
     284     263     264
     297     298     318
     297     277     298
     335     315     336
      73      51      52
     353     354     375
     311     312     332
     349     328     329
     374     373     352
     366     345     346
     369     348     349
     383     362     363
     407     406     386
     380     401     400
     400     401     422
     433     413     434
     434     413     414
      13      35      34
      56      34      35
     425     424     403
      35      13      14
      47      48      69
      27       6       7
     425     403     404
      43      23      44
      82      81      61
      61      40      41
      99      98      78
      78      57      58
     116     115      95
      95      74      75
     133     132     112
     112      91      92
     170     169     148
     128     108     129
     167     166     146
     125     126     146
     184     183     163
     163     142     143
     180     179     159
     221     220     199
     218     217     197
     197     176     177
     194     195     215
     193     194     214
     251     231     252
     407     408     429
     269     268     248
     248     227     228
     286     285     265
     265     244     245
     303     302     282
     282     261     262
     360     338     339
     298     278     299
     428     407     429
     358     337     359
     313     314     334
     312     313     333
     371     370     350
     350     329     330
     388     387     367
     367     346     347
     405     404     384
     384     363     364
     426     425     404
     403     402     382
     418     398     419
     419     398     399
     391     369     370
     419     399     420
      32      31      11
      31      30      10
      29       8       9
       7       8      28
      68      67      46
      24      25      45
      83      82      62
      41      42      62
     100      99      79
      79      58      59
     117     116      96
      96      75      76
     134     133     113
     113      92      93
     149     150     171
     129     109     130
     167     147     168
     390     391     412
     185     184     164
     164     143     144
     181     180     160
     201     200     180
     219     218     198
     198     177     178
     235     236     257
     216     195     196
     275     254     276
     253     232     233
     270     269     249
     249     228     229
     287     286     266
     266     245     246
     304     303     283
     283     262     263
     319     320     341
     299     279     300
     317     296     297
     340     339     318
     354     355     376
     355     335     356
     372     371     351
     351     330     331
     389     388     368
     368     347     348
     406     405     385
     385     364     365
     402     381     382
     401     381     402
     374     352     353
     439     419     440
     436     415     416
     435     415     436
      32      33      54