TITLE = "Unsaturated Diffusion tests"
FILETYPE = "GRID"
VARIABLES = "X coordinate (m)" "Y coordinate (m)"
ZONE T = "GRID", N =       12, E =        5, DATAPACKING = POINT, ZONETYPE = FEQUADRILATERAL, STRANDID = 0, SOLUTIONTIME = 0.
 0.000000000E+00   0.000000000E+00
 0.100000000E+01   0.000000000E+00
 0.000000000E+00   0.200000000E+00
 0.100000000E+01   0.200000000E+00
 0.000000000E+00   0.400000000E+00
 0.100000000E+01   0.400000000E+00
 0.000000000E+00   0.600000000E+00
 0.100000000E+01   0.600000000E+00
 0.000000000E+00   0.800000000E+00
 0.100000000E+01   0.800000000E+00
 0.000000000E+00   0.100000000E+01
 0.100000000E+01   0.100000000E+01
       1       2       4       3
       3       4       6       5
       5       6       8       7
       7       8      10       9
       9      10      12      11
