# vtk DataFile Version 2.0
FEHM VTK model, time:    10.0000    
ASCII
DATASET UNSTRUCTURED_GRID
POINTS      495 double
  -10.0000      -5.00000       0.00000    
  -10.0000      -4.48053       0.00000    
  -10.0000      -3.99517       0.00000    
  -10.0000      -3.47509       0.00000    
  -10.0000      -3.00187       0.00000    
  -10.0000      -2.54177       0.00000    
  -10.0000      -2.08234       0.00000    
  -10.0000      -1.57324       0.00000    
  -10.0000      -1.05841       0.00000    
  -10.0000     -0.536616       0.00000    
  -10.0000     -4.559168E-02   0.00000    
  -10.0000      0.433174       0.00000    
  -10.0000      0.890193       0.00000    
  -10.0000       1.43561       0.00000    
  -10.0000       1.91245       0.00000    
  -10.0000       2.44912       0.00000    
  -10.0000       2.90344       0.00000    
  -10.0000       3.42994       0.00000    
  -10.0000       3.96791       0.00000    
  -10.0000       4.48182       0.00000    
  -10.0000       5.00000       0.00000    
  -9.53661      -5.00000       0.00000    
  -9.37928       4.11014       0.00000    
  -9.36818       1.50837       0.00000    
  -9.32004      -4.29631       0.00000    
  -9.26005       2.15424       0.00000    
  -9.22735      -2.05746       0.00000    
  -9.22642      0.278337       0.00000    
  -9.21538      -3.57064       0.00000    
  -9.19469      -2.85058       0.00000    
  -9.17910       2.89631       0.00000    
  -9.17737       5.00000       0.00000    
  -9.14829      -1.38756       0.00000    
  -9.14796      0.996800       0.00000    
  -9.13431     -0.588712       0.00000    
  -9.07297      -5.00000       0.00000    
  -8.99299       3.49286       0.00000    
  -8.78612       4.26705       0.00000    
  -8.63070       5.00000       0.00000    
  -8.61926      -4.19484       0.00000    
  -8.61283       2.38185       0.00000    
  -8.57785      -5.00000       0.00000    
  -8.57233       1.63443       0.00000    
  -8.56384      -2.52678       0.00000    
  -8.54987      0.824247       0.00000    
  -8.53193      5.471380E-02   0.00000    
  -8.46136      -3.39304       0.00000    
  -8.43524      -1.81927       0.00000    
  -8.36300      -1.12790       0.00000    
  -8.25590       3.74227       0.00000    
  -8.24941     -0.529582       0.00000    
  -8.23225       2.97497       0.00000    
  -8.14129       4.41801       0.00000    
  -8.13332       5.00000       0.00000    
  -8.12575      -5.00000       0.00000    
  -7.96071      0.566596       0.00000    
  -7.95380      -2.95860       0.00000    
  -7.92528       2.19165       0.00000    
  -7.91923      -4.19381       0.00000    
  -7.88947       1.32123       0.00000    
  -7.81321      -2.28896       0.00000    
  -7.69393     -5.957537E-02   0.00000    
  -7.66358      -1.58309       0.00000    
  -7.64399       3.48917       0.00000    
  -7.64066      -5.00000       0.00000    
  -7.60599       5.00000       0.00000    
  -7.58703      -3.59791       0.00000    
  -7.53415       4.20726       0.00000    
  -7.51398     -0.866332       0.00000    
  -7.28971       2.92228       0.00000    
  -7.28196       2.26936       0.00000    
  -7.27830      -2.89272       0.00000    
  -7.25702      0.710192       0.00000    
  -7.25191       1.60609       0.00000    
  -7.14193       5.00000       0.00000    
  -7.10452      -4.25162       0.00000    
  -7.09952      -5.00000       0.00000    
  -7.08613      -2.15046       0.00000    
  -7.01808     -0.197834       0.00000    
  -6.95268       3.64493       0.00000    
  -6.91091       4.35916       0.00000    
  -6.87951      -1.46376       0.00000    
  -6.81961      -3.55171       0.00000    
  -6.71869     -0.866167       0.00000    
  -6.67308       2.34664       0.00000    
  -6.66484       5.00000       0.00000    
  -6.62179      -2.76870       0.00000    
  -6.61645       1.45853       0.00000    
  -6.61199      0.781314       0.00000    
  -6.60245      -5.00000       0.00000    
  -6.48393      0.170448       0.00000    
  -6.38294       3.18839       0.00000    
  -6.33561      -2.00371       0.00000    
  -6.31605       4.08998       0.00000    
  -6.28161      -4.20306       0.00000    
  -6.18559     -0.491220       0.00000    
  -6.14500      -5.00000       0.00000    
  -6.13678       5.00000       0.00000    
  -6.13097      -3.40463       0.00000    
  -6.07801       1.92368       0.00000    
  -6.05691      0.787233       0.00000    
  -6.00660      -2.64776       0.00000    
  -6.00433      -1.32511       0.00000    
  -5.98990       2.49532       0.00000    
  -5.77310       4.36262       0.00000    
  -5.74599       1.39235       0.00000    
  -5.67917      8.859885E-02   0.00000    
  -5.63802      -5.00000       0.00000    
  -5.63078       3.60303       0.00000    
  -5.62628      -3.96202       0.00000    
  -5.61391       5.00000       0.00000    
  -5.56755       2.84794       0.00000    
  -5.52395      -2.10634       0.00000    
  -5.48898      -3.02070       0.00000    
  -5.45909     -0.690595       0.00000    
  -5.44041      0.799520       0.00000    
  -5.30710       1.97724       0.00000    
  -5.21714      -1.33007       0.00000    
  -5.14559       4.30155       0.00000    
  -5.12450      -5.00000       0.00000    
  -5.11447       5.00000       0.00000    
  -5.06185      -3.46921       0.00000    
  -4.99669     -0.168144       0.00000    
  -4.99232      -4.22174       0.00000    
  -4.95937       3.09786       0.00000    
  -4.93205       2.41809       0.00000    
  -4.93070       1.27828       0.00000    
  -4.88277      0.514515       0.00000    
  -4.85260      -1.94665       0.00000    
  -4.79827       3.73657       0.00000    
  -4.79099      -2.68546       0.00000    
  -4.66555      -5.00000       0.00000    
  -4.65016       5.00000       0.00000    
  -4.57042     -0.764416       0.00000    
  -4.47092      -1.42429       0.00000    
  -4.45316      -3.48963       0.00000    
  -4.45181       4.35243       0.00000    
  -4.42395       1.74198       0.00000    
  -4.35056      6.826633E-02   0.00000    
  -4.34713       2.52502       0.00000    
  -4.31113       3.22221       0.00000    
  -4.27273      -4.24178       0.00000    
  -4.19903       5.00000       0.00000    
  -4.17056      0.910220       0.00000    
  -4.16301      -2.06174       0.00000    
  -4.15993      -5.00000       0.00000    
  -4.03585       3.86920       0.00000    
  -4.02214      -2.81828       0.00000    
  -3.91522     -0.468252       0.00000    
  -3.76178      -3.60508       0.00000    
  -3.74789       2.78887       0.00000    
  -3.74685       4.42246       0.00000    
  -3.71686      -1.24179       0.00000    
  -3.71290       5.00000       0.00000    
  -3.70710       2.12464       0.00000    
  -3.70147       3.43438       0.00000    
  -3.69732      0.237743       0.00000    
  -3.64189       1.49277       0.00000    
  -3.63097      -5.00000       0.00000    
  -3.54336      -4.29796       0.00000    
  -3.50211      -2.13819       0.00000    
  -3.34132      -3.03811       0.00000    
  -3.30720      0.859074       0.00000    
  -3.26438     -0.457735       0.00000    
  -3.22685       3.21828       0.00000    
  -3.19559       5.00000       0.00000    
  -3.18664       4.02057       0.00000    
  -3.15880      -5.00000       0.00000    
  -3.07795       2.60738       0.00000    
  -3.04268      0.192765       0.00000    
  -2.99708      -1.50668       0.00000    
  -2.97425      -3.76531       0.00000    
  -2.91851       2.02276       0.00000    
  -2.91030      -2.62282       0.00000    
  -2.89878       1.49132       0.00000    
  -2.82738     -0.922848       0.00000    
  -2.75253      -4.37873       0.00000    
  -2.68381      -2.00206       0.00000    
  -2.66694      -5.00000       0.00000    
  -2.65590       5.00000       0.00000    
  -2.65262       4.43347       0.00000    
  -2.65166       3.24806       0.00000    
  -2.56300      -3.32170       0.00000    
  -2.53383       1.14814       0.00000    
  -2.51761      0.543700       0.00000    
  -2.47491     -0.220286       0.00000    
  -2.47330       3.83047       0.00000    
  -2.34219       2.60020       0.00000    
  -2.28700      -2.64958       0.00000    
  -2.19196      -5.00000       0.00000    
  -2.12843       5.00000       0.00000    
  -2.11645      -1.40348       0.00000    
  -2.08197     -0.798721       0.00000    
  -2.05510      -4.11898       0.00000    
  -2.05494       1.84575       0.00000    
  -2.01870       4.28476       0.00000    
  -2.00091      -2.03978       0.00000    
  -1.93606       1.03900       0.00000    
  -1.89690       3.38300       0.00000    
  -1.89109      0.289340       0.00000    
  -1.88945      -3.26163       0.00000    
  -1.71277      -5.00000       0.00000    
  -1.68527       2.57379       0.00000    
  -1.68013     -0.337719       0.00000    
  -1.61483       5.00000       0.00000    
  -1.61257      -2.55122       0.00000    
  -1.53440       4.17680       0.00000    
  -1.40149      -3.71046       0.00000    
  -1.36725      0.723075       0.00000    
  -1.31832      -1.08917       0.00000    
  -1.30628       1.34722       0.00000    
  -1.28045      -1.79846       0.00000    
  -1.27733       3.16338       0.00000    
  -1.24011       2.00443       0.00000    
  -1.18245      -5.00000       0.00000    
  -1.15798      -4.31013       0.00000    
  -1.14698      -3.09947       0.00000    
  -1.13520      0.158181       0.00000    
  -1.11887       5.00000       0.00000    
  -1.09589       3.78806       0.00000    
  -1.01667     -0.445014       0.00000    
 -0.998606       4.43033       0.00000    
 -0.971364      -2.48433       0.00000    
 -0.937195       2.66586       0.00000    
 -0.684991      -5.00000       0.00000    
 -0.676608      -3.65745       0.00000    
 -0.642312       3.39670       0.00000    
 -0.635913      0.698409       0.00000    
 -0.634033       1.44956       0.00000    
[...]
POINT_DATA       495
SCALARS Liquid_Pressure_(MPa)                    double 1
LOOKUP_TABLE default
       1.00000           1.05184           1.10028           1.15220           1.19945           1.24540           1.29129           1.34216           1.39361           1.44577    
       1.49486           1.54274           1.58846           1.64303           1.69075           1.74447           1.78995           1.84268           1.89657           1.94806    
       2.00000           1.00000           1.91082           1.65031           1.07022           1.71495           1.29378           1.52725           1.14266           1.21456    
       1.78924           1.99999           1.36071           1.59912           1.44056           1.00000           1.84898           1.92654           1.99999           1.08035    
       1.73773           1.00000           1.66292           1.24689           1.58186           1.50489           1.16039           1.31757           1.38666           1.87397    
       1.44647           1.79712           1.94167           1.99999           1.00000           1.55609           1.20377           1.71869           1.08045           1.63158    
       1.27065           1.49346           1.34117           1.84861           1.00001           1.99999           1.13993           1.92055           1.41280           1.79184    
       1.72647           1.21035           1.57045           1.66008           2.00000           1.07468           1.00001           1.28448           1.47964           1.86422    
       1.93577           1.35309           1.14455           1.41282           1.73421           1.99999           1.22273           1.64532           1.57756           1.00000    
       1.51646           1.81849           1.29914           1.90880           1.07953           1.45030           1.00001           1.99999           1.15923           1.69187    
       1.57815           1.23481           1.36695           1.74909           1.93612           1.63869           1.50827           1.00001           1.86002           1.10359    
       1.99999           1.78439           1.28889           1.19756           1.43037           1.57938           1.69723           1.36645           1.93000           1.00001    
       1.99999           1.15278           1.48260           1.07766           1.80942           1.74136           1.62728           1.55087           1.30484           1.87339    
       1.23104           1.00001           2.00000           1.42299           1.35703           1.15074           1.93510           1.67368           1.50624           1.75206    
       1.82187           1.07566           2.00000           1.59045           1.29334           1.00001           1.88668           1.21777           1.45259           1.13921    
       1.77847           1.94211           1.37527           1.99999           1.71198           1.84312           1.52318           1.64874           1.00001           1.07006    
       1.28570           1.19582           1.58533           1.45364           1.82148           1.99999           1.90184           1.00001           1.76030           1.51868    
       1.34879           1.12322           1.70177           1.23729           1.64859           1.40714           1.06199           1.29930           1.00001           1.99999    
       1.94321           1.82446           1.16750           1.61424           1.55378           1.47737           1.88280           1.75958           1.23462           1.00000    
       1.99999           1.35910           1.41954           1.08792           1.68405           1.92831           1.29552           1.60332           1.83797           1.52833    
       1.17350           1.00001           1.75693           1.46562           1.99999           1.24444           1.91749           1.12869           1.57171           1.39050    
       1.63415           1.31963           1.81597           1.69993           1.00001           1.06884           1.18968           1.51521           1.99999           1.87854    
       1.45489           1.94290           1.25111           1.76614           1.00001           1.13398           1.83933           1.56923           1.64439           1.99999    
       1.35103           1.71201           1.42081           1.28124           1.49071           1.20548           1.91822           1.07419           1.78351           1.00000    
       1.99999           1.84545           1.39940           1.44938           1.49937           1.54938           1.59939           1.14850           1.66237           1.73508    
       1.31506           1.00001           1.23272           1.94057           1.58508           1.99999           1.07772           1.87711           1.79800           1.36447    
       1.71977           1.15236           1.50433           1.64947           1.00001           1.43874           1.99999           1.29051           1.58329           1.92190    
       1.84275           1.37059           1.77001           1.21759           1.07534           1.69824           1.00001           1.54869           1.14056           1.99999    
       1.62440           1.33570           1.48404           1.94186           1.87598           1.41366           1.00001           1.80665           1.26713           1.74206    
       1.17663           1.67439           1.56081           1.99999           1.08501           1.00000           1.92444           1.35430           1.45100           1.84336    
       1.61424           1.21101           1.52840           1.69764           1.99999           1.77144           1.13786           1.27274           1.06820           1.00000    
       1.88341           1.41460           1.94001           1.99999           1.32949           1.64796           1.19162           1.58056           1.49899           1.82673    
       1.00000           1.70727           1.76317           1.10010           1.37602           1.25772           1.89135           1.99999           1.94974           1.44033    
       1.00001           1.31322           1.56246           1.19031           1.64448           1.79102           1.49213           1.38140           1.72214           1.85017    
       1.99999           1.06977           1.13498           1.92766           1.00001           1.25204           1.33851           1.52180           1.60246           1.43008    
       1.78244           1.86617           1.69086           1.99999           1.18676           1.00001           1.05463           1.11629           1.29220           1.92819    
       1.48057           1.36330           1.55030           1.61938           1.84811           1.99999           1.76811           1.68715           1.00001           1.22510    
       1.42063           1.14804           1.07342           1.29962           1.92224           1.49007           1.99999           1.35533           1.63873           1.00001    
       1.84755           1.71315           1.56526           1.77864           1.17811           1.26771           1.42668           1.09220           1.92783           1.49905    
       1.99999           1.00001           1.35504           1.67285           1.60586           1.74189           1.87272           1.81016           1.54031           1.20931    
       1.99999           1.00000           1.47346           1.06761           1.32983           1.40112           1.26439           1.92806           1.14112           1.70601    
       1.64676           1.58450           1.76877           1.84809           1.99999           1.00001           1.44585           1.29743           1.21548           1.52388    
       1.07721           1.92181           1.69762           1.37406           1.61668           1.77936           1.99999           1.00001           1.14359           1.84244    
       1.29410           1.45315           1.21376           1.58027           1.73140           1.87282           1.99999           1.65757           1.93399           1.00001    
       1.38600           1.51914           1.08297           1.79779           1.31141           1.16047           2.00000           1.45965           1.58663           1.86473    
       1.23344           1.00000           1.72720           1.65263           1.92807           1.32701           1.40039           1.80156           2.00000           1.14123    
       1.00000           1.52930           1.07369           1.27517           1.86256           1.60471           1.46048           1.68298           1.20491           1.74986    
       1.93221           1.34647           1.99999           1.00000           1.00000           1.05369           1.10117           1.15124           1.19632           1.24626    
       1.30113           1.35211           1.40631           1.45993           1.50646           1.55931           1.60914           1.65951           1.71160           1.75649    
       1.80557           1.85173           1.89589           1.93878           1.97361    
SCALARS Saturation                               double 1
LOOKUP_TABLE default
       1.00000           1.00000           1.00000           1.00000           1.00000           1.00000           1.00000           1.00000           1.00000           1.00000    
       1.00000           1.00000           1.00000           1.00000           1.00000           1.00000           1.00000           1.00000           1.00000           1.00000    
       1.00000           1.00000           1.00000           1.00000           1.00000           1.00000           1.00000           1.00000           1.00000           1.00000    
       1.00000           1.00000           1.00000           1.00000           1.00000           1.00000           1.00000           1.00000           1.00000           1.00000    
       1.00000           1.00000           1.00000           1.00000           1.00000           1.00000           1.00000           1.00000           1.00000           1.00000    
       1.00000           1.00000           1.00000           1.00000           1.00000           1.00000           1.00000           1.00000           1.00000           1.00000    
       1.00000           1.00000           1.00000           1.00000           1.00000           1.00000           1.00000           1.00000           1.00000           1.00000    
       1.00000           1.00000           1.00000           1.00000           1.00000           1.00000           1.00000           1.00000           1.00000           1.00000    
       1.00000           1.00000           1.00000           1.00000           1.00000           1.00000           1.00000           1.00000           1.00000           1.00000    
       1.00000           1.00000           1.00000           1.00000           1.00000           1.00000           1.00000           1.00000           1.00000           1.00000    
       1.00000           1.00000           1.00000           1.00000           1.00000           1.00000           1.00000           1.00000           1.00000           1.00000    
       1.00000           1.00000           1.00000           1.00000           1.00000           1.00000           1.00000           1.00000           1.00000           1.00000    
       1.00000           1.00000           1.00000           1.00000           1.00000           1.00000           1.00000           1.00000           1.00000           1.00000    
       1.00000           1.00000           1.00000           1.00000           1.00000           1.00000           1.00000           1.00000           1.00000           1.00000    
       1.00000           1.00000           1.00000           1.00000           1.00000           1.00000           1.00000           1.00000           1.00000           1.00000    
       1.00000           1.00000           1.00000           1.00000           1.00000           1.00000           1.00000           1.00000           1.00000           1.00000    
       1.00000           1.00000           1.00000           1.00000           1.00000           1.00000           1.00000           1.00000           1.00000           1.00000    
       1.00000           1.00000           1.00000           1.00000           1.00000           1.00000           1.00000           1.00000           1.00000           1.00000    
       1.00000           1.00000           1.00000           1.00000           1.00000           1.00000           1.00000           1.00000           1.00000           1.00000    
       1.00000           1.00000           1.00000           1.00000           1.00000           1.00000           1.00000           1.00000           1.00000           1.00000    
       1.00000           1.00000           1.00000           1.00000           1.00000           1.00000           1.00000           1.00000           1.00000           1.00000    
       1.00000           1.00000           1.00000           1.00000           1.00000           1.00000           1.00000           1.00000           1.00000           1.00000    
       1.00000           1.00000           1.00000           1.00000           1.00000           1.00000           1.00000           1.00000           1.00000           1.00000    
       1.00000           1.00000           1.00000           1.00000           1.00000           1.00000           1.00000           1.00000           1.00000           1.00000    
       1.00000           1.00000           1.00000           1.00000           1.00000           1.00000           1.00000           1.00000           1.00000           1.00000    
       1.00000           1.00000           1.00000           1.00000           1.00000           1.00000           1.00000           1.00000           1.00000           1.00000    
       1.00000           1.00000           1.00000           1.00000           1.00000           1.00000           1.00000           1.00000           1.00000           1.00000    
       1.00000           1.00000           1.00000           1.00000           1.00000           1.00000           1.00000           1.00000           1.00000           1.00000    
       1.00000           1.00000           1.00000           1.00000           1.00000           1.00000           1.00000           1.00000           1.00000           1.00000    
       1.00000           1.00000           1.00000           1.00000           1.00000           1.00000           1.00000           1.00000           1.00000           1.00000    
       1.00000           1.00000           1.00000           1.00000           1.00000           1.00000           1.00000           1.00000           1.00000           1.00000    
       1.00000           1.00000           1.00000           1.00000           1.00000           1.00000           1.00000           1.00000           1.00000           1.00000    
       1.00000           1.00000           1.00000           1.00000           1.00000           1.00000           1.00000           1.00000           1.00000           1.00000    
       1.00000           1.00000           1.00000           1.00000           1.00000           1.00000           1.00000           1.00000           1.00000           1.00000    
       1.00000           1.00000           1.00000           1.00000           1.00000           1.00000           1.00000           1.00000           1.00000           1.00000    
       1.00000           1.00000           1.00000           1.00000           1.00000           1.00000           1.00000           1.00000           1.00000           1.00000    
       1.00000           1.00000           1.00000           1.00000           1.00000           1.00000           1.00000           1.00000           1.00000           1.00000    
       1.00000           1.00000           1.00000           1.00000           1.00000           1.00000           1.00000           1.00000           1.00000           1.00000    
       1.00000           1.00000           1.00000           1.00000           1.00000           1.00000           1.00000           1.00000           1.00000           1.00000    
       1.00000           1.00000           1.00000           1.00000           1.00000           1.00000           1.00000           1.00000           1.00000           1.00000    
       1.00000           1.00000           1.00000           1.00000           1.00000           1.00000           1.00000           1.00000           1.00000           1.00000    
       1.00000           1.00000           1.00000           1.00000           1.00000           1.00000           1.00000           1.00000           1.00000           1.00000    
       1.00000           1.00000           1.00000           1.00000           1.00000           1.00000           1.00000           1.00000           1.00000           1.00000    
       1.00000           1.00000           1.00000           1.00000           1.00000           1.00000           1.00000           1.00000           1.00000           1.00000    
       1.00000           1.00000           1.00000           1.00000           1.00000           1.00000           1.00000           1.00000           1.00000           1.00000    
       1.00000           1.00000           1.00000           1.00000           1.00000           1.00000           1.00000           1.00000           1.00000           1.00000    
       1.00000           1.00000           1.00000           1.00000           1.00000           1.00000           1.00000           1.00000           1.00000           1.00000    
       1.00000           1.00000           1.00000           1.00000           1.00000           1.00000           1.00000           1.00000           1.00000           1.00000    
       1.00000           1.00000           1.00000           1.00000           1.00000           1.00000           1.00000           1.00000           1.00000           1.00000    
       1.00000           1.00000           1.00000           1.00000           1.00000    
SCALARS X_Permeability_(log_m**2)                double 1
LOOKUP_TABLE default
      -7.68124          -7.68124          -7.68124          -7.68124          -7.68124          -7.68124          -7.68124          -7.68124          -7.68124          -7.68124    
      -7.68124          -7.68124          -7.68124          -7.68124          -7.68124          -7.68124          -7.68124          -7.68124          -7.68124          -7.68124    
      -7.68124          -7.68124          -7.68124          -7.68124          -7.68124          -7.68124          -7.68124          -7.68124          -7.68124          -7.68124    
      -7.68124          -7.68124          -7.68124          -7.68124          -7.68124          -7.68124          -7.68124          -7.68124          -7.68124          -7.68124    
      -7.68124          -7.68124          -7.68124          -7.68124          -7.68124          -7.68124          -7.68124          -7.68124          -7.68124          -7.68124    
      -7.68124          -7.68124          -7.68124          -7.68124          -7.68124          -7.68124          -7.68124          -7.68124          -7.68124          -7.68124    
      -7.68124          -7.68124          -7.68124          -7.68124          -7.68124          -7.68124          -7.68124          -7.68124          -7.68124          -7.68124    
      -7.68124          -7.68124          -7.68124          -7.68124          -7.68124          -7.68124          -7.68124          -7.68124          -7.68124          -7.68124    
      -7.68124          -7.68124          -7.68124          -7.68124          -7.68124          -7.68124          -7.68124          -7.68124          -7.68124          -7.68124    
      -7.68124          -7.68124          -7.68124          -7.68124          -7.68124          -7.68124          -7.68124          -7.68124          -7.68124          -7.68124    