# vtk DataFile Version 2.0
PyFEHM VTK model output
ASCII
DATASET UNSTRUCTURED_GRID
POINTS 1331 double
0.0 0.0 0.0
1.0 0.0 0.0
2.0 0.0 0.0
3.0 0.0 0.0
4.0 0.0 0.0
5.0 0.0 0.0
6.0 0.0 0.0
7.0 0.0 0.0
8.0 0.0 0.0
9.0 0.0 0.0
10.0 0.0 0.0
0.0 1.0 0.0
1.0 1.0 0.0
2.0 1.0 0.0
3.0 1.0 0.0
4.0 1.0 0.0
5.0 1.0 0.0
6.0 1.0 0.0
7.0 1.0 0.0
8.0 1.0 0.0
9.0 1.0 0.0
10.0 1.0 0.0
0.0 2.0 0.0
1.0 2.0 0.0
2.0 2.0 0.0
3.0 2.0 0.0
4.0 2.0 0.0
5.0 2.0 0.0
6.0 2.0 0.0
7.0 2.0 0.0
8.0 2.0 0.0
9.0 2.0 0.0
10.0 2.0 0.0
0.0 3.0 0.0
1.0 3.0 0.0
2.0 3.0 0.0
3.0 3.0 0.0
4.0 3.0 0.0
5.0 3.0 0.0
6.0 3.0 0.0
7.0 3.0 0.0
8.0 3.0 0.0
9.0 3.0 0.0
10.0 3.0 0.0
0.0 4.0 0.0
1.0 4.0 0.0
2.0 4.0 0.0
3.0 4.0 0.0
4.0 4.0 0.0
5.0 4.0 0.0
6.0 4.0 0.0
7.0 4.0 0.0
8.0 4.0 0.0
9.0 4.0 0.0
10.0 4.0 0.0
0.0 5.0 0.0
1.0 5.0 0.0
2.0 5.0 0.0
3.0 5.0 0.0
4.0 5.0 0.0
5.0 5.0 0.0
6.0 5.0 0.0
7.0 5.0 0.0
8.0 5.0 0.0
9.0 5.0 0.0
10.0 5.0 0.0
0.0 6.0 0.0
1.0 6.0 0.0
2.0 6.0 0.0
3.0 6.0 0.0
4.0 6.0 0.0
5.0 6.0 0.0
6.0 6.0 0.0
7.0 6.0 0.0
8.0 6.0 0.0
9.0 6.0 0.0
10.0 6.0 0.0
0.0 7.0 0.0
1.0 7.0 0.0
2.0 7.0 0.0
3.0 7.0 0.0
4.0 7.0 0.0
5.0 7.0 0.0
6.0 7.0 0.0
7.0 7.0 0.0
8.0 7.0 0.0
9.0 7.0 0.0
10.0 7.0 0.0
0.0 8.0 0.0
1.0 8.0 0.0
2.0 8.0 0.0
3.0 8.0 0.0
4.0 8.0 0.0
5.0 8.0 0.0
6.0 8.0 0.0
7.0 8.0 0.0
8.0 8.0 0.0
9.0 8.0 0.0
10.0 8.0 0.0
0.0 9.0 0.0
1.0 9.0 0.0
2.0 9.0 0.0
3.0 9.0 0.0
4.0 9.0 0.0
5.0 9.0 0.0
6.0 9.0 0.0
7.0 9.0 0.0
8.0 9.0 0.0
9.0 9.0 0.0
10.0 9.0 0.0
0.0 10.0 0.0
1.0 10.0 0.0
2.0 10.0 0.0
3.0 10.0 0.0
4.0 10.0 0.0
5.0 10.0 0.0
6.0 10.0 0.0
7.0 10.0 0.0
8.0 10.0 0.0
9.0 10.0 0.0
10.0 10.0 0.0
0.0 0.0 1.0
1.0 0.0 1.0
2.0 0.0 1.0
3.0 0.0 1.0
4.0 0.0 1.0
5.0 0.0 1.0
6.0 0.0 1.0
7.0 0.0 1.0
8.0 0.0 1.0
9.0 0.0 1.0
10.0 0.0 1.0
0.0 1.0 1.0
1.0 1.0 1.0
2.0 1.0 1.0
3.0 1.0 1.0
4.0 1.0 1.0
5.0 1.0 1.0
6.0 1.0 1.0
7.0 1.0 1.0
8.0 1.0 1.0
9.0 1.0 1.0
10.0 1.0 1.0
0.0 2.0 1.0
1.0 2.0 1.0
2.0 2.0 1.0
3.0 2.0 1.0
4.0 2.0 1.0
5.0 2.0 1.0
6.0 2.0 1.0
7.0 2.0 1.0
8.0 2.0 1.0
9.0 2.0 1.0
10.0 2.0 1.0
0.0 3.0 1.0
1.0 3.0 1.0
2.0 3.0 1.0
3.0 3.0 1.0
4.0 3.0 1.0
5.0 3.0 1.0
6.0 3.0 1.0
7.0 3.0 1.0
8.0 3.0 1.0
9.0 3.0 1.0
10.0 3.0 1.0
0.0 4.0 1.0
1.0 4.0 1.0
2.0 4.0 1.0
3.0 4.0 1.0
4.0 4.0 1.0
5.0 4.0 1.0
6.0 4.0 1.0
7.0 4.0 1.0
8.0 4.0 1.0
9.0 4.0 1.0
10.0 4.0 1.0
0.0 5.0 1.0
1.0 5.0 1.0
2.0 5.0 1.0
3.0 5.0 1.0
4.0 5.0 1.0
5.0 5.0 1.0
6.0 5.0 1.0
7.0 5.0 1.0
8.0 5.0 1.0
9.0 5.0 1.0
10.0 5.0 1.0
0.0 6.0 1.0
1.0 6.0 1.0
2.0 6.0 1.0
3.0 6.0 1.0
4.0 6.0 1.0
5.0 6.0 1.0
6.0 6.0 1.0
7.0 6.0 1.0
8.0 6.0 1.0
9.0 6.0 1.0
10.0 6.0 1.0
0.0 7.0 1.0
1.0 7.0 1.0
2.0 7.0 1.0
3.0 7.0 1.0
4.0 7.0 1.0
5.0 7.0 1.0
6.0 7.0 1.0
7.0 7.0 1.0
8.0 7.0 1.0
9.0 7.0 1.0
10.0 7.0 1.0
0.0 8.0 1.0
1.0 8.0 1.0
2.0 8.0 1.0
3.0 8.0 1.0
4.0 8.0 1.0
5.0 8.0 1.0
6.0 8.0 1.0
7.0 8.0 1.0
8.0 8.0 1.0
9.0 8.0 1.0
10.0 8.0 1.0
0.0 9.0 1.0
1.0 9.0 1.0
2.0 9.0 1.0
3.0 9.0 1.0
4.0 9.0 1.0
5.0 9.0 1.0
6.0 9.0 1.0
7.0 9.0 1.0
8.0 9.0 1.0
9.0 9.0 1.0
10.0 9.0 1.0
0.0 10.0 1.0
1.0 10.0 1.0
2.0 10.0 1.0
3.0 10.0 1.0
4.0 10.0 1.0
5.0 10.0 1.0
6.0 10.0 1.0
7.0 10.0 1.0
8.0 10.0 1.0
9.0 10.0 1.0
10.0 10.0 1.0
0.0 0.0 2.0
1.0 0.0 2.0
2.0 0.0 2.0
3.0 0.0 2.0
4.0 0.0 2.0
5.0 0.0 2.0
6.0 0.0 2.0
7.0 0.0 2.0
8.0 0.0 2.0
9.0 0.0 2.0
10.0 0.0 2.0
0.0 1.0 2.0
1.0 1.0 2.0
2.0 1.0 2.0
3.0 1.0 2.0
4.0 1.0 2.0
5.0 1.0 2.0
6.0 1.0 2.0
7.0 1.0 2.0
8.0 1.0 2.0
9.0 1.0 2.0
10.0 1.0 2.0
0.0 2.0 2.0
1.0 2.0 2.0
2.0 2.0 2.0
3.0 2.0 2.0
4.0 2.0 2.0
5.0 2.0 2.0
6.0 2.0 2.0
7.0 2.0 2.0
8.0 2.0 2.0
9.0 2.0 2.0
10.0 2.0 2.0
0.0 3.0 2.0
1.0 3.0 2.0
2.0 3.0 2.0
3.0 3.0 2.0
4.0 3.0 2.0
5.0 3.0 2.0
6.0 3.0 2.0
7.0 3.0 2.0
8.0 3.0 2.0
9.0 3.0 2.0
10.0 3.0 2.0
0.0 4.0 2.0
1.0 4.0 2.0
2.0 4.0 2.0
3.0 4.0 2.0
4.0 4.0 2.0
5.0 4.0 2.0
6.0 4.0 2.0
7.0 4.0 2.0
8.0 4.0 2.0
9.0 4.0 2.0
10.0 4.0 2.0
0.0 5.0 2.0
1.0 5.0 2.0
2.0 5.0 2.0
3.0 5.0 2.0
4.0 5.0 2.0
5.0 5.0 2.0
6.0 5.0 2.0
7.0 5.0 2.0
8.0 5.0 2.0
9.0 5.0 2.0
10.0 5.0 2.0
0.0 6.0 2.0
1.0 6.0 2.0
2.0 6.0 2.0
3.0 6.0 2.0
4.0 6.0 2.0
5.0 6.0 2.0
6.0 6.0 2.0
7.0 6.0 2.0
8.0 6.0 2.0
9.0 6.0 2.0
10.0 6.0 2.0
0.0 7.0 2.0
1.0 7.0 2.0
2.0 7.0 2.0
3.0 7.0 2.0
4.0 7.0 2.0
5.0 7.0 2.0
6.0 7.0 2.0
7.0 7.0 2.0
8.0 7.0 2.0
9.0 7.0 2.0
10.0 7.0 2.0
0.0 8.0 2.0
1.0 8.0 2.0
2.0 8.0 2.0
3.0 8.0 2.0
4.0 8.0 2.0
5.0 8.0 2.0
6.0 8.0 2.0
7.0 8.0 2.0
8.0 8.0 2.0
9.0 8.0 2.0
10.0 8.0 2.0
0.0 9.0 2.0
1.0 9.0 2.0
2.0 9.0 2.0
3.0 9.0 2.0
4.0 9.0 2.0
5.0 9.0 2.0
6.0 9.0 2.0
7.0 9.0 2.0
8.0 9.0 2.0
9.0 9.0 2.0
10.0 9.0 2.0
0.0 10.0 2.0
1.0 10.0 2.0
2.0 10.0 2.0
3.0 10.0 2.0
4.0 10.0 2.0
5.0 10.0 2.0
6.0 10.0 2.0
7.0 10.0 2.0
8.0 10.0 2.0
9.0 10.0 2.0
10.0 10.0 2.0
0.0 0.0 3.0
1.0 0.0 3.0
2.0 0.0 3.0
3.0 0.0 3.0
4.0 0.0 3.0
5.0 0.0 3.0
6.0 0.0 3.0
7.0 0.0 3.0
8.0 0.0 3.0
9.0 0.0 3.0
10.0 0.0 3.0
0.0 1.0 3.0
1.0 1.0 3.0
2.0 1.0 3.0
3.0 1.0 3.0
4.0 1.0 3.0
5.0 1.0 3.0
6.0 1.0 3.0
7.0 1.0 3.0
8.0 1.0 3.0
9.0 1.0 3.0
10.0 1.0 3.0
0.0 2.0 3.0
1.0 2.0 3.0
2.0 2.0 3.0
3.0 2.0 3.0
4.0 2.0 3.0
5.0 2.0 3.0
6.0 2.0 3.0
7.0 2.0 3.0
8.0 2.0 3.0
9.0 2.0 3.0
10.0 2.0 3.0
0.0 3.0 3.0
1.0 3.0 3.0
2.0 3.0 3.0
3.0 3.0 3.0
4.0 3.0 3.0
5.0 3.0 3.0
6.0 3.0 3.0
7.0 3.0 3.0
8.0 3.0 3.0
9.0 3.0 3.0
10.0 3.0 3.0
0.0 4.0 3.0
1.0 4.0 3.0
2.0 4.0 3.0
3.0 4.0 3.0
4.0 4.0 3.0
5.0 4.0 3.0
6.0 4.0 3.0
7.0 4.0 3.0
8.0 4.0 3.0
9.0 4.0 3.0
10.0 4.0 3.0
0.0 5.0 3.0
1.0 5.0 3.0
2.0 5.0 3.0
3.0 5.0 3.0
4.0 5.0 3.0
5.0 5.0 3.0
6.0 5.0 3.0
7.0 5.0 3.0
8.0 5.0 3.0
9.0 5.0 3.0
10.0 5.0 3.0
0.0 6.0 3.0
1.0 6.0 3.0
2.0 6.0 3.0
3.0 6.0 3.0
4.0 6.0 3.0
5.0 6.0 3.0
6.0 6.0 3.0
7.0 6.0 3.0
8.0 6.0 3.0
9.0 6.0 3.0
10.0 6.0 3.0
0.0 7.0 3.0
1.0 7.0 3.0
2.0 7.0 3.0
3.0 7.0 3.0
4.0 7.0 3.0
5.0 7.0 3.0
6.0 7.0 3.0
7.0 7.0 3.0
8.0 7.0 3.0
9.0 7.0 3.0
10.0 7.0 3.0
0.0 8.0 3.0
1.0 8.0 3.0
2.0 8.0 3.0
3.0 8.0 3.0
4.0 8.0 3.0
5.0 8.0 3.0
6.0 8.0 3.0
7.0 8.0 3.0
8.0 8.0 3.0
9.0 8.0 3.0
10.0 8.0 3.0
0.0 9.0 3.0
1.0 9.0 3.0
2.0 9.0 3.0
3.0 9.0 3.0
4.0 9.0 3.0
5.0 9.0 3.0
6.0 9.0 3.0
7.0 9.0 3.0
8.0 9.0 3.0
9.0 9.0 3.0
10.0 9.0 3.0
0.0 10.0 3.0
1.0 10.0 3.0
2.0 10.0 3.0
3.0 10.0 3.0
4.0 10.0 3.0
5.0 10.0 3.0
6.0 10.0 3.0
7.0 10.0 3.0
8.0 10.0 3.0
9.0 10.0 3.0
10.0 10.0 3.0
0.0 0.0 4.0
1.0 0.0 4.0
2.0 0.0 4.0
3.0 0.0 4.0
4.0 0.0 4.0
5.0 0.0 4.0
6.0 0.0 4.0
7.0 0.0 4.0
8.0 0.0 4.0
9.0 0.0 4.0
10.0 0.0 4.0
0.0 1.0 4.0
1.0 1.0 4.0
2.0 1.0 4.0
3.0 1.0 4.0
4.0 1.0 4.0
5.0 1.0 4.0
6.0 1.0 4.0
7.0 1.0 4.0
8.0 1.0 4.0
9.0 1.0 4.0
10.0 1.0 4.0
0.0 2.0 4.0
1.0 2.0 4.0
2.0 2.0 4.0
3.0 2.0 4.0
4.0 2.0 4.0
5.0 2.0 4.0
6.0 2.0 4.0
7.0 2.0 4.0
8.0 2.0 4.0
9.0 2.0 4.0
10.0 2.0 4.0
0.0 3.0 4.0
1.0 3.0 4.0
2.0 3.0 4.0
3.0 3.0 4.0
4.0 3.0 4.0
5.0 3.0 4.0
6.0 3.0 4.0
7.0 3.0 4.0
8.0 3.0 4.0
9.0 3.0 4.0
10.0 3.0 4.0
0.0 4.0 4.0
1.0 4.0 4.0
2.0 4.0 4.0
3.0 4.0 4.0
4.0 4.0 4.0
5.0 4.0 4.0
6.0 4.0 4.0
7.0 4.0 4.0
8.0 4.0 4.0
9.0 4.0 4.0
10.0 4.0 4.0
0.0 5.0 4.0
1.0 5.0 4.0
2.0 5.0 4.0
3.0 5.0 4.0
4.0 5.0 4.0
5.0 5.0 4.0
6.0 5.0 4.0
7.0 5.0 4.0
8.0 5.0 4.0
9.0 5.0 4.0
10.0 5.0 4.0
0.0 6.0 4.0
1.0 6.0 4.0
2.0 6.0 4.0
3.0 6.0 4.0
4.0 6.0 4.0
5.0 6.0 4.0
6.0 6.0 4.0
7.0 6.0 4.0
8.0 6.0 4.0
9.0 6.0 4.0
10.0 6.0 4.0
0.0 7.0 4.0
1.0 7.0 4.0
2.0 7.0 4.0
3.0 7.0 4.0
4.0 7.0 4.0
5.0 7.0 4.0
6.0 7.0 4.0
7.0 7.0 4.0
8.0 7.0 4.0
9.0 7.0 4.0
10.0 7.0 4.0
0.0 8.0 4.0
1.0 8.0 4.0
2.0 8.0 4.0
3.0 8.0 4.0
4.0 8.0 4.0
5.0 8.0 4.0
6.0 8.0 4.0
7.0 8.0 4.0
8.0 8.0 4.0
9.0 8.0 4.0
10.0 8.0 4.0
0.0 9.0 4.0
1.0 9.0 4.0
2.0 9.0 4.0
3.0 9.0 4.0
4.0 9.0 4.0
5.0 9.0 4.0
6.0 9.0 4.0
7.0 9.0 4.0
8.0 9.0 4.0
9.0 9.0 4.0
10.0 9.0 4.0
0.0 10.0 4.0
1.0 10.0 4.0
2.0 10.0 4.0
3.0 10.0 4.0
4.0 10.0 4.0
5.0 10.0 4.0
6.0 10.0 4.0
7.0 10.0 4.0
8.0 10.0 4.0
9.0 10.0 4.0
10.0 10.0 4.0
0.0 0.0 5.0
1.0 0.0 5.0
2.0 0.0 5.0
3.0 0.0 5.0
4.0 0.0 5.0
5.0 0.0 5.0
6.0 0.0 5.0
7.0 0.0 5.0
8.0 0.0 5.0
9.0 0.0 5.0
10.0 0.0 5.0
0.0 1.0 5.0
1.0 1.0 5.0
2.0 1.0 5.0
3.0 1.0 5.0
4.0 1.0 5.0
5.0 1.0 5.0
6.0 1.0 5.0
7.0 1.0 5.0
8.0 1.0 5.0
9.0 1.0 5.0
10.0 1.0 5.0
0.0 2.0 5.0
1.0 2.0 5.0
2.0 2.0 5.0
3.0 2.0 5.0
4.0 2.0 5.0
5.0 2.0 5.0
6.0 2.0 5.0
7.0 2.0 5.0
8.0 2.0 5.0
9.0 2.0 5.0
10.0 2.0 5.0
0.0 3.0 5.0
1.0 3.0 5.0
2.0 3.0 5.0
3.0 3.0 5.0
4.0 3.0 5.0
5.0 3.0 5.0
6.0 3.0 5.0
7.0 3.0 5.0
8.0 3.0 5.0
9.0 3.0 5.0
10.0 3.0 5.0
0.0 4.0 5.0
1.0 4.0 5.0
2.0 4.0 5.0
3.0 4.0 5.0
4.0 4.0 5.0
5.0 4.0 5.0
6.0 4.0 5.0
7.0 4.0 5.0
8.0 4.0 5.0
9.0 4.0 5.0
10.0 4.0 5.0
0.0 5.0 5.0
1.0 5.0 5.0
2.0 5.0 5.0
3.0 5.0 5.0
4.0 5.0 5.0
5.0 5.0 5.0
6.0 5.0 5.0
7.0 5.0 5.0
8.0 5.0 5.0
9.0 5.0 5.0
10.0 5.0 5.0
0.0 6.0 5.0
1.0 6.0 5.0
2.0 6.0 5.0
3.0 6.0 5.0
4.0 6.0 5.0
5.0 6.0 5.0
6.0 6.0 5.0
7.0 6.0 5.0
8.0 6.0 5.0
9.0 6.0 5.0
10.0 6.0 5.0
0.0 7.0 5.0
1.0 7.0 5.0
2.0 7.0 5.0
3.0 7.0 5.0
4.0 7.0 5.0
5.0 7.0 5.0
6.0 7.0 5.0
7.0 7.0 5.0
8.0 7.0 5.0
9.0 7.0 5.0
10.0 7.0 5.0
0.0 8.0 5.0
1.0 8.0 5.0
2.0 8.0 5.0
3.0 8.0 5.0
4.0 8.0 5.0
5.0 8.0 5.0
6.0 8.0 5.0
7.0 8.0 5.0
8.0 8.0 5.0
9.0 8.0 5.0
10.0 8.0 5.0
0.0 9.0 5.0
1.0 9.0 5.0
2.0 9.0 5.0
3.0 9.0 5.0
4.0 9.0 5.0
5.0 9.0 5.0
6.0 9.0 5.0
7.0 9.0 5.0
8.0 9.0 5.0
9.0 9.0 5.0
10.0 9.0 5.0
0.0 10.0 5.0
1.0 10.0 5.0
2.0 10.0 5.0
3.0 10.0 5.0
4.0 10.0 5.0
5.0 10.0 5.0
6.0 10.0 5.0
7.0 10.0 5.0
8.0 10.0 5.0
9.0 10.0 5.0
10.0 10.0 5.0
0.0 0.0 6.0
1.0 0.0 6.0
2.0 0.0 6.0
3.0 0.0 6.0
4.0 0.0 6.0
5.0 0.0 6.0
6.0 0.0 6.0
7.0 0.0 6.0
8.0 0.0 6.0
9.0 0.0 6.0
10.0 0.0 6.0
0.0 1.0 6.0
1.0 1.0 6.0
2.0 1.0 6.0
3.0 1.0 6.0
4.0 1.0 6.0
5.0 1.0 6.0
6.0 1.0 6.0
7.0 1.0 6.0
8.0 1.0 6.0
9.0 1.0 6.0
10.0 1.0 6.0
0.0 2.0 6.0
1.0 2.0 6.0
2.0 2.0 6.0
3.0 2.0 6.0
4.0 2.0 6.0
5.0 2.0 6.0
6.0 2.0 6.0
7.0 2.0 6.0
8.0 2.0 6.0
9.0 2.0 6.0
10.0 2.0 6.0
0.0 3.0 6.0
1.0 3.0 6.0
2.0 3.0 6.0
3.0 3.0 6.0
4.0 3.0 6.0
5.0 3.0 6.0
6.0 3.0 6.0
7.0 3.0 6.0
8.0 3.0 6.0
9.0 3.0 6.0
10.0 3.0 6.0
0.0 4.0 6.0
1.0 4.0 6.0
2.0 4.0 6.0
3.0 4.0 6.0
4.0 4.0 6.0
5.0 4.0 6.0
6.0 4.0 6.0
7.0 4.0 6.0
8.0 4.0 6.0
9.0 4.0 6.0
10.0 4.0 6.0
0.0 5.0 6.0
1.0 5.0 6.0
2.0 5.0 6.0
3.0 5.0 6.0
4.0 5.0 6.0
5.0 5.0 6.0
6.0 5.0 6.0
7.0 5.0 6.0
8.0 5.0 6.0
9.0 5.0 6.0
10.0 5.0 6.0
0.0 6.0 6.0
1.0 6.0 6.0
2.0 6.0 6.0
3.0 6.0 6.0
4.0 6.0 6.0
5.0 6.0 6.0
6.0 6.0 6.0
7.0 6.0 6.0
8.0 6.0 6.0
9.0 6.0 6.0
10.0 6.0 6.0
0.0 7.0 6.0
1.0 7.0 6.0
2.0 7.0 6.0
3.0 7.0 6.0
4.0 7.0 6.0
5.0 7.0 6.0
6.0 7.0 6.0
7.0 7.0 6.0
8.0 7.0 6.0
9.0 7.0 6.0
[...]
POINT_DATA 1331
SCALARS P double 1
LOOKUP_TABLE default
6.0 6.0 6.0 6.0 6.0 6.0 6.0 6.0 6.0 6.0 6.0 5.80369654 5.80369654 5.80369654 5.80369654 5.80369654 5.80369654 5.80369654 5.80369654 5.80369654 5.80369654 5.80369654 5.60632834 5.60632834 5.60632834 5.60632834 5.60632834 5.60632834 5.60632834 5.60632834 5.60632834 5.60632834 5.60632834 5.40810546 5.40810546 5.40810546 5.40810546 5.40810546 5.40810546 5.40810546 5.40810546 5.40810546 5.40810546 5.40810546 5.20914688 5.20914688 5.20914688 5.20914688 5.20914688 5.20914688 5.20914688 5.20914688 5.20914688 5.20914688 5.20914688 5.00951491 5.00951491 5.00951491 5.00951491 5.00951491 5.00951491 5.00951491 5.00951491 5.00951491 5.00951491 5.00951491 4.8092247 4.8092247 4.8092247 4.8092247 4.8092247 4.8092247 4.8092247 4.8092247 4.8092247 4.8092247 4.8092247 4.60824519 4.60824519 4.60824519 4.60824519 4.60824519 4.60824519 4.60824519 4.60824519 4.60824519 4.60824519 4.60824519 4.40649386 4.40649386 4.40649386 4.40649386 4.40649386 4.40649386 4.40649386 4.40649386 4.40649386 4.40649386 4.40649386 4.20382396 4.20382396 4.20382396 4.20382396 4.20382396 4.20382396 4.20382396 4.20382397 4.20382397 4.20382397 4.20382397 4.0 4.0 4.0 4.0 4.0 4.0 4.0 4.0 4.0 4.0 4.0 6.0 6.0 6.0 6.0 6.0 6.0 6.0 6.0 6.0 6.0 6.0 5.80077593 5.80077593 5.80077593 5.80077593 5.80077593 5.80077593 5.80077593 5.80077593 5.80077593 5.80077593 5.80077593 5.60208484 5.60208484 5.60208484 5.60208484 5.60208484 5.60208484 5.60208484 5.60208484 5.60208484 5.60208484 5.60208484 5.40311443 5.40311443 5.40311443 5.40311443 5.40311443 5.40311443 5.40311443 5.40311443 5.40311443 5.40311443 5.40311443 5.20376458 5.20376458 5.20376458 5.20376458 5.20376458 5.20376458 5.20376458 5.20376458 5.20376458 5.20376458 5.20376458 5.00403774 5.00403774 5.00403774 5.00403774 5.00403774 5.00403774 5.00403774 5.00403774 5.00403774 5.00403774 5.00403774 4.80394285 4.80394285 4.80394285 4.80394285 4.80394285 4.80394285 4.80394285 4.80394285 4.80394285 4.80394285 4.80394285 4.60348205 4.60348205 4.60348205 4.60348205 4.60348205 4.60348205 4.60348205 4.60348205 4.60348205 4.60348205 4.60348205 4.4026525 4.4026525 4.4026525 4.4026525 4.4026525 4.4026525 4.4026525 4.4026525 4.4026525 4.4026525 4.4026525 4.20145887 4.20145887 4.20145887 4.20145887 4.20145887 4.20145887 4.20145887 4.20145887 4.20145887 4.20145887 4.20145887 4.0 4.0 4.0 4.0 4.0 4.0 4.0 4.0 4.0 4.0 4.0 6.0 6.0 6.0 6.0 6.0 6.0 6.0 6.0 6.0 6.0 6.0 5.79959322 5.79959322 5.79959322 5.79959322 5.79959322 5.79959322 5.79959322 5.79959322 5.79959322 5.79959322 5.79959322 5.59943762 5.59943762 5.59943762 5.59943762 5.59943762 5.59943762 5.59943762 5.59943762 5.59943762 5.59943762 5.59943762 5.39937836 5.39937836 5.39937836 5.39937836 5.39937836 5.39937836 5.39937836 5.39937836 5.39937836 5.39937836 5.39937836 5.19937137 5.19937137 5.19937137 5.19937137 5.19937137 5.19937137 5.19937137 5.19937137 5.19937137 5.19937137 5.19937137 4.99940208 4.99940208 4.99940208 4.99940208 4.99940208 4.99940208 4.99940208 4.99940208 4.99940208 4.99940208 4.99940208 4.7994645 4.7994645 4.7994645 4.7994645 4.7994645 4.7994645 4.7994645 4.7994645 4.7994645 4.7994645 4.7994645 4.59955672 4.59955672 4.59955672 4.59955672 4.59955672 4.59955672 4.59955672 4.59955672 4.59955672 4.59955672 4.59955672 4.3996783 4.3996783 4.3996783 4.3996783 4.3996783 4.3996783 4.3996783 4.3996783 4.3996783 4.3996783 4.3996783 4.19982655 4.19982655 4.19982655 4.19982655 4.19982655 4.19982655 4.19982655 4.19982655 4.19982655 4.19982655 4.19982655 4.0 4.0 4.0 4.0 4.0 4.0 4.0 4.0 4.0 4.0 4.0 6.0 6.0 6.0 6.0 6.0 6.0 6.0 6.0 6.0 6.0 6.0 5.79748071 5.79748071 5.79748071 5.79748071 5.79748071 5.79748071 5.79748071 5.79748071 5.79748071 5.79748071 5.79748071 5.59577748 5.59577748 5.59577748 5.59577748 5.59577748 5.59577748 5.59577748 5.59577748 5.59577748 5.59577748 5.59577748 5.39468628 5.39468628 5.39468628 5.39468628 5.39468628 5.39468628 5.39468628 5.39468628 5.39468628 5.39468628 5.39468628 5.19408799 5.19408799 5.19408799 5.19408799 5.19408799 5.19408799 5.19408799 5.19408799 5.19408799 5.19408799 5.19408799 4.99391732 4.99391732 4.99391732 4.99391732 4.99391732 4.99391732 4.99391732 4.99391732 4.99391732 4.99391732 4.99391732 4.79415001 4.79415001 4.79415001 4.79415001 4.79415001 4.79415001 4.79415001 4.79415001 4.79415001 4.79415001 4.79415001 4.59479938 4.59479938 4.59479938 4.59479938 4.59479938 4.59479938 4.59479938 4.59479938 4.59479938 4.59479938 4.59479938 4.39591758 4.39591758 4.39591758 4.39591758 4.39591758 4.39591758 4.39591758 4.39591758 4.39591758 4.39591758 4.39591758 4.19760084 4.19760084 4.19760084 4.19760084 4.19760084 4.19760084 4.19760084 4.19760084 4.19760084 4.19760084 4.19760084 4.0 4.0 4.0 4.0 4.0 4.0 4.0 4.0 4.0 4.0 4.0 6.0 6.0 6.0 6.0 6.0 6.0 6.0 6.0 6.0 6.0 6.0 5.19600632 5.19600632 5.19600632 5.19600632 5.19600632 5.19600632 5.19600632 5.19600632 5.19600632 5.19600632 5.19600632 5.10210063 5.10210063 5.10210063 5.10210063 5.10210063 5.10210063 5.10210063 5.10210063 5.10210063 5.10210063 5.10210063 5.0661953 5.0661953 5.0661953 5.0661953 5.0661953 5.0661953 5.0661953 5.0661953 5.0661953 5.0661953 5.0661953 5.03391967 5.03391967 5.03391967 5.03391967 5.03391967 5.03391967 5.03391967 5.03391967 5.03391967 5.03391967 5.03391967 5.00189266 5.00189266 5.00189266 5.00189266 5.00189266 5.00189266 5.00189266 5.00189266 5.00189266 5.00189266 5.00189266 4.96992343 4.96992343 4.96992343 4.96992343 4.96992343 4.96992343 4.96992343 4.96992343 4.96992343 4.96992343 4.96992343 4.93779449 4.93779449 4.93779449 4.93779449 4.93779449 4.93779449 4.93779449 4.93779449 4.93779449 4.93779449 4.93779449 4.90203322 4.90203322 4.90203322 4.90203322 4.90203322 4.90203322 4.90203322 4.90203322 4.90203322 4.90203322 4.90203322 4.80790797 4.80790797 4.80790797 4.80790797 4.80790797 4.80790797 4.80790797 4.80790797 4.80790797 4.80790797 4.80790797 4.0 4.0 4.0 4.0 4.0 4.0 4.0 4.0 4.0 4.0 4.0 6.0 6.0 6.0 6.0 6.0 6.0 6.0 6.0 6.0 6.0 6.0 5.09908587 5.09908587 5.09908587 5.09908587 5.09908587 5.09908587 5.09908587 5.09908587 5.09908587 5.09908587 5.09908587 5.0186478 5.0186478 5.0186478 5.0186478 5.0186478 5.0186478 5.0186478 5.0186478 5.0186478 5.0186478 5.0186478 5.00952402 5.00952402 5.00952402 5.00952402 5.00952402 5.00952402 5.00952402 5.00952402 5.00952402 5.00952402 5.00952402 5.00501987 5.00501987 5.00501987 5.00501987 5.00501987 5.00501987 5.00501987 5.00501987 5.00501987 5.00501987 5.00501987 5.00073768 5.00073768 5.00073768 5.00073768 5.00073768 5.00073768 5.00073768 5.00073768 5.00073768 5.00073768 5.00073768 4.99642777 4.99642777 4.99642777 4.99642777 4.99642777 4.99642777 4.99642777 4.99642777 4.99642777 4.99642777 4.99642777 4.9918153 4.9918153 4.9918153 4.9918153 4.9918153 4.9918153 4.9918153 4.9918153 4.9918153 4.9918153 4.9918153 4.98242382 4.98242382 4.98242382 4.98242382 4.98242382 4.98242382 4.98242382 4.98242382 4.98242382 4.98242382 4.98242382 4.90152224 4.90152224 4.90152224 4.90152224 4.90152224 4.90152224 4.90152224 4.90152224 4.90152224 4.90152224 4.90152224 4.0 4.0 4.0 4.0 4.0 4.0 4.0 4.0 4.0 4.0 4.0 6.0 6.0 6.0 6.0 6.0 6.0 6.0 6.0 6.0 6.0 6.0 5.19248018 5.19248018 5.19248018 5.19248018 5.19248018 5.19248018 5.19248018 5.19248018 5.19248018 5.19248018 5.19248018 5.1004757 5.1004757 5.1004757 5.1004757 5.1004757 5.1004757 5.1004757 5.1004757 5.1004757 5.1004757 5.1004757 5.06595158 5.06595158 5.06595158 5.06595158 5.06595158 5.06595158 5.06595158 5.06595158 5.06595158 5.06595158 5.06595158 5.03436387 5.03436387 5.03436387 5.03436387 5.03436387 5.03436387 5.03436387 5.03436387 5.03436387 5.03436387 5.03436387 5.00259954 5.00259954 5.00259954 5.00259954 5.00259954 5.00259954 5.00259954 5.00259954 5.00259954 5.00259954 5.00259954 4.97063496 4.97063496 4.97063496 4.97063496 4.97063496 4.97063496 4.97063496 4.97063496 4.97063496 4.97063496 4.97063496 4.93833545 4.93833545 4.93833545 4.93833545 4.93833545 4.93833545 4.93833545 4.93833545 4.93833545 4.93833545 4.93833545 4.90227773 4.90227773 4.90227773 4.90227773 4.90227773 4.90227773 4.90227773 4.90227773 4.90227773 4.90227773 4.90227773 4.80789599 4.807896 4.807896 4.807896 4.807896 4.807896 4.807896 4.807896 4.807896 4.807896 4.80789599 4.0 4.0 4.0 4.0 4.0 4.0 4.0 4.0 4.0 4.0 4.0 6.0 6.0 6.0 6.0 6.0 6.0 6.0 6.0 6.0 6.0 6.0 5.80284217 5.80284217 5.80284217 5.80284217 5.80284217 5.80284217 5.80284217 5.80284217 5.80284217 5.80284217 5.80284217 5.60488886 5.60488886 5.60488886 5.60488886 5.60488886 5.60488886 5.60488886 5.60488886 5.60488886 5.60488886 5.60488886 5.40625268 5.40625268 5.40625268 5.40625268 5.40625268 5.40625268 5.40625268 5.40625268 5.40625268 5.40625268 5.40625268 5.20701091 5.20701091 5.20701091 5.20701091 5.20701091 5.20701091 5.20701091 5.20701091 5.20701091 5.20701091 5.20701091 5.00722154 5.00722154 5.00722154 5.00722154 5.00722154 5.00722154 5.00722154 5.00722154 5.00722154 5.00722154 5.00722154 4.80691808 4.80691808 4.80691808 4.80691808 4.80691808 4.80691808 4.80691808 4.80691808 4.80691808 4.80691808 4.80691808 4.60610277 4.60610277 4.60610277 4.60610277 4.60610277 4.60610277 4.60610277 4.60610277 4.60610277 4.60610277 4.60610277 4.40474025 4.40474025 4.40474025 4.40474025 4.40474025 4.40474025 4.40474025 4.40474025 4.40474025 4.40474025 4.40474025 4.20275036 4.20275036 4.20275036 4.20275036 4.20275036 4.20275036 4.20275036 4.20275036 4.20275036 4.20275036 4.20275036 4.0 4.0 4.0 4.0 4.0 4.0 4.0 4.0 4.0 4.0 4.0 6.0 6.0 6.0 6.0 6.0 6.0 6.0 6.0 6.0 6.0 6.0 5.80152506 5.80152506 5.80152506 5.80152506 5.80152506 5.80152506 5.80152506 5.80152506 5.80152506 5.80152506 5.80152506 5.60243707 5.60243707 5.60243707 5.60243707 5.60243707 5.60243707 5.60243707 5.60243707 5.60243707 5.60243707 5.60243707 5.40284121 5.40284121 5.40284121 5.40284121 5.40284121 5.40284121 5.40284121 5.40284121 5.40284121 5.40284121 5.40284121 5.20288633 5.20288633 5.20288633 5.20288633 5.20288633 5.20288633 5.20288633 5.20288633 5.20288633 5.20288633 5.20288633 5.00269045 5.00269045 5.00269045 5.00269045 5.00269045 5.00269045 5.00269045 5.00269045 5.00269045 5.00269045 5.00269045 4.80233094 4.80233094 4.80233094 4.80233094 4.80233094 4.80233094 4.80233094 4.80233094 4.80233094 4.80233094 4.80233094 4.60185425 4.60185425 4.60185425 4.60185425 4.60185425 4.60185425 4.60185425 4.60185425 4.60185425 4.60185425 4.60185425 4.40128868 4.40128868 4.40128868 4.40128868 4.40128868 4.40128868 4.40128868 4.40128868 4.40128868 4.40128868 4.40128868 4.20065784 4.20065784 4.20065784 4.20065784 4.20065784 4.20065784 4.20065784 4.20065784 4.20065784 4.20065784 4.20065784 4.0 4.0 4.0 4.0 4.0 4.0 4.0 4.0 4.0 4.0 4.0 6.0 6.0 6.0 6.0 6.0 6.0 6.0 6.0 6.0 6.0 6.0 5.80316342 5.80316342 5.80316342 5.80316342 5.80316342 5.80316342 5.80316342 5.80316342 5.80316342 5.80316342 5.80316342 5.60313007 5.60313007 5.60313007 5.60313007 5.60313007 5.60313007 5.60313007 5.60313007 5.60313007 5.60313007 5.60313007 5.40201242 5.40201242 5.40201242 5.40201242 5.40201242 5.40201242 5.40201242 5.40201242 5.40201242 5.40201242 5.40201242 5.20074906 5.20074906 5.20074906 5.20074906 5.20074906 5.20074906 5.20074906 5.20074906 5.20074906 5.20074906 5.20074906 4.99970601 4.99970601 4.99970601 4.99970601 4.99970601 4.99970601 4.99970601 4.99970601 4.99970601 4.99970601 4.99970601 4.79900627 4.79900627 4.79900627 4.79900627 4.79900627 4.79900627 4.79900627 4.79900627 4.79900627 4.79900627 4.79900627 4.59868375 4.59868375 4.59868375 4.59868375 4.59868375 4.59868375 4.59868375 4.59868375 4.59868375 4.59868375 4.59868375 4.39874408 4.39874408 4.39874408 4.39874408 4.39874408 4.39874408 4.39874408 4.39874408 4.39874408 4.39874408 4.39874408 4.19918485 4.19918485 4.19918485 4.19918485 4.19918485 4.19918485 4.19918485 4.19918485 4.19918485 4.19918485 4.19918485 4.0 4.0 4.0 4.0 4.0 4.0 4.0 4.0 4.0 4.0 4.0 6.0 6.0 6.0 6.0 6.0 6.0 6.0 6.0 6.0 6.0 6.0 5.79741405 5.79741405 5.79741405 5.79741405 5.79741405 5.79741405 5.79741405 5.79741405 5.79741405 5.79741405 5.79741405 5.59560168 5.59560168 5.59560168 5.59560168 5.59560168 5.59560168 5.59560168 5.59560168 5.59560168 5.59560168 5.59560168 5.39420737 5.39420737 5.39420737 5.39420737 5.39420737 5.39420737 5.39420737 5.39420737 5.39420737 5.39420737 5.39420737 5.19317578 5.19317578 5.19317578 5.19317578 5.19317578 5.19317578 5.19317578 5.19317578 5.19317578 5.19317578 5.19317578 4.99255314 4.99255314 4.99255314 4.99255314 4.99255314 4.99255314 4.99255314 4.99255314 4.99255314 4.99255314 4.99255314 4.79242338 4.79242338 4.79242338 4.79242338 4.79242338 4.79242338 4.79242338 4.79242338 4.79242338 4.79242338 4.79242338 4.59290031 4.59290031 4.59290031 4.59290031 4.59290031 4.59290031 4.59290031 4.59290031 4.59290031 4.59290031 4.59290031 4.39414367 4.39414367 4.39414367 4.39414367 4.39414367 4.39414367 4.39414367 4.39414367 4.39414367 4.39414367 4.39414367 4.1963899 4.1963899 4.1963899 4.1963899 4.1963899 4.1963899 4.1963899 4.1963899 4.1963899 4.1963899 4.1963899 4.0 4.0 4.0 4.0 4.0 4.0 4.0 4.0 4.0 4.0 4.0
SCALARS diff_P double 1
LOOKUP_TABLE default