# vtk DataFile Version 2.0
PyFEHM VTK model output
ASCII
DATASET UNSTRUCTURED_GRID
POINTS 1331 double
0.0 0.0 0.0
1.0 0.0 0.0
2.0 0.0 0.0
3.0 0.0 0.0
4.0 0.0 0.0
5.0 0.0 0.0
6.0 0.0 0.0
7.0 0.0 0.0
8.0 0.0 0.0
9.0 0.0 0.0
10.0 0.0 0.0
0.0 1.0 0.0
1.0 1.0 0.0
2.0 1.0 0.0
3.0 1.0 0.0
4.0 1.0 0.0
5.0 1.0 0.0
6.0 1.0 0.0
7.0 1.0 0.0
8.0 1.0 0.0
9.0 1.0 0.0
10.0 1.0 0.0
0.0 2.0 0.0
1.0 2.0 0.0
2.0 2.0 0.0
3.0 2.0 0.0
4.0 2.0 0.0
5.0 2.0 0.0
6.0 2.0 0.0
7.0 2.0 0.0
8.0 2.0 0.0
9.0 2.0 0.0
10.0 2.0 0.0
0.0 3.0 0.0
1.0 3.0 0.0
2.0 3.0 0.0
3.0 3.0 0.0
4.0 3.0 0.0
5.0 3.0 0.0
6.0 3.0 0.0
7.0 3.0 0.0
8.0 3.0 0.0
9.0 3.0 0.0
10.0 3.0 0.0
0.0 4.0 0.0
1.0 4.0 0.0
2.0 4.0 0.0
3.0 4.0 0.0
4.0 4.0 0.0
5.0 4.0 0.0
6.0 4.0 0.0
7.0 4.0 0.0
8.0 4.0 0.0
9.0 4.0 0.0
10.0 4.0 0.0
0.0 5.0 0.0
1.0 5.0 0.0
2.0 5.0 0.0
3.0 5.0 0.0
4.0 5.0 0.0
5.0 5.0 0.0
6.0 5.0 0.0
7.0 5.0 0.0
8.0 5.0 0.0
9.0 5.0 0.0
10.0 5.0 0.0
0.0 6.0 0.0
1.0 6.0 0.0
2.0 6.0 0.0
3.0 6.0 0.0
4.0 6.0 0.0
5.0 6.0 0.0
6.0 6.0 0.0
7.0 6.0 0.0
8.0 6.0 0.0
9.0 6.0 0.0
10.0 6.0 0.0
0.0 7.0 0.0
1.0 7.0 0.0
2.0 7.0 0.0
3.0 7.0 0.0
4.0 7.0 0.0
5.0 7.0 0.0
6.0 7.0 0.0
7.0 7.0 0.0
8.0 7.0 0.0
9.0 7.0 0.0
10.0 7.0 0.0
0.0 8.0 0.0
1.0 8.0 0.0
2.0 8.0 0.0
3.0 8.0 0.0
4.0 8.0 0.0
5.0 8.0 0.0
6.0 8.0 0.0
7.0 8.0 0.0
8.0 8.0 0.0
9.0 8.0 0.0
10.0 8.0 0.0
0.0 9.0 0.0
1.0 9.0 0.0
2.0 9.0 0.0
3.0 9.0 0.0
4.0 9.0 0.0
5.0 9.0 0.0
6.0 9.0 0.0
7.0 9.0 0.0
8.0 9.0 0.0
9.0 9.0 0.0
10.0 9.0 0.0
0.0 10.0 0.0
1.0 10.0 0.0
2.0 10.0 0.0
3.0 10.0 0.0
4.0 10.0 0.0
5.0 10.0 0.0
6.0 10.0 0.0
7.0 10.0 0.0
8.0 10.0 0.0
9.0 10.0 0.0
10.0 10.0 0.0
0.0 0.0 1.0
1.0 0.0 1.0
2.0 0.0 1.0
3.0 0.0 1.0
4.0 0.0 1.0
5.0 0.0 1.0
6.0 0.0 1.0
7.0 0.0 1.0
8.0 0.0 1.0
9.0 0.0 1.0
10.0 0.0 1.0
0.0 1.0 1.0
1.0 1.0 1.0
2.0 1.0 1.0
3.0 1.0 1.0
4.0 1.0 1.0
5.0 1.0 1.0
6.0 1.0 1.0
7.0 1.0 1.0
8.0 1.0 1.0
9.0 1.0 1.0
10.0 1.0 1.0
0.0 2.0 1.0
1.0 2.0 1.0
2.0 2.0 1.0
3.0 2.0 1.0
4.0 2.0 1.0
5.0 2.0 1.0
6.0 2.0 1.0
7.0 2.0 1.0
8.0 2.0 1.0
9.0 2.0 1.0
10.0 2.0 1.0
0.0 3.0 1.0
1.0 3.0 1.0
2.0 3.0 1.0
3.0 3.0 1.0
4.0 3.0 1.0
5.0 3.0 1.0
6.0 3.0 1.0
7.0 3.0 1.0
8.0 3.0 1.0
9.0 3.0 1.0
10.0 3.0 1.0
0.0 4.0 1.0
1.0 4.0 1.0
2.0 4.0 1.0
3.0 4.0 1.0
4.0 4.0 1.0
5.0 4.0 1.0
6.0 4.0 1.0
7.0 4.0 1.0
8.0 4.0 1.0
9.0 4.0 1.0
10.0 4.0 1.0
0.0 5.0 1.0
1.0 5.0 1.0
2.0 5.0 1.0
3.0 5.0 1.0
4.0 5.0 1.0
5.0 5.0 1.0
6.0 5.0 1.0
7.0 5.0 1.0
8.0 5.0 1.0
9.0 5.0 1.0
10.0 5.0 1.0
0.0 6.0 1.0
1.0 6.0 1.0
2.0 6.0 1.0
3.0 6.0 1.0
4.0 6.0 1.0
5.0 6.0 1.0
6.0 6.0 1.0
7.0 6.0 1.0
8.0 6.0 1.0
9.0 6.0 1.0
10.0 6.0 1.0
0.0 7.0 1.0
1.0 7.0 1.0
2.0 7.0 1.0
3.0 7.0 1.0
4.0 7.0 1.0
5.0 7.0 1.0
6.0 7.0 1.0
7.0 7.0 1.0
8.0 7.0 1.0
9.0 7.0 1.0
10.0 7.0 1.0
0.0 8.0 1.0
1.0 8.0 1.0
2.0 8.0 1.0
3.0 8.0 1.0
4.0 8.0 1.0
5.0 8.0 1.0
6.0 8.0 1.0
7.0 8.0 1.0
8.0 8.0 1.0
9.0 8.0 1.0
10.0 8.0 1.0
0.0 9.0 1.0
1.0 9.0 1.0
2.0 9.0 1.0
3.0 9.0 1.0
4.0 9.0 1.0
5.0 9.0 1.0
6.0 9.0 1.0
7.0 9.0 1.0
8.0 9.0 1.0
9.0 9.0 1.0
10.0 9.0 1.0
0.0 10.0 1.0
1.0 10.0 1.0
2.0 10.0 1.0
3.0 10.0 1.0
4.0 10.0 1.0
5.0 10.0 1.0
6.0 10.0 1.0
7.0 10.0 1.0
8.0 10.0 1.0
9.0 10.0 1.0
10.0 10.0 1.0
0.0 0.0 2.0
1.0 0.0 2.0
2.0 0.0 2.0
3.0 0.0 2.0
4.0 0.0 2.0
5.0 0.0 2.0
6.0 0.0 2.0
7.0 0.0 2.0
8.0 0.0 2.0
9.0 0.0 2.0
10.0 0.0 2.0
0.0 1.0 2.0
1.0 1.0 2.0
2.0 1.0 2.0
3.0 1.0 2.0
4.0 1.0 2.0
5.0 1.0 2.0
6.0 1.0 2.0
7.0 1.0 2.0
8.0 1.0 2.0
9.0 1.0 2.0
10.0 1.0 2.0
0.0 2.0 2.0
1.0 2.0 2.0
2.0 2.0 2.0
3.0 2.0 2.0
4.0 2.0 2.0
5.0 2.0 2.0
6.0 2.0 2.0
7.0 2.0 2.0
8.0 2.0 2.0
9.0 2.0 2.0
10.0 2.0 2.0
0.0 3.0 2.0
1.0 3.0 2.0
2.0 3.0 2.0
3.0 3.0 2.0
4.0 3.0 2.0
5.0 3.0 2.0
6.0 3.0 2.0
7.0 3.0 2.0
8.0 3.0 2.0
9.0 3.0 2.0
10.0 3.0 2.0
0.0 4.0 2.0
1.0 4.0 2.0
2.0 4.0 2.0
3.0 4.0 2.0
4.0 4.0 2.0
5.0 4.0 2.0
6.0 4.0 2.0
7.0 4.0 2.0
8.0 4.0 2.0
9.0 4.0 2.0
10.0 4.0 2.0
0.0 5.0 2.0
1.0 5.0 2.0
2.0 5.0 2.0
3.0 5.0 2.0
4.0 5.0 2.0
5.0 5.0 2.0
6.0 5.0 2.0
7.0 5.0 2.0
8.0 5.0 2.0
9.0 5.0 2.0
10.0 5.0 2.0
0.0 6.0 2.0
1.0 6.0 2.0
2.0 6.0 2.0
3.0 6.0 2.0
4.0 6.0 2.0
5.0 6.0 2.0
6.0 6.0 2.0
7.0 6.0 2.0
8.0 6.0 2.0
9.0 6.0 2.0
10.0 6.0 2.0
0.0 7.0 2.0
1.0 7.0 2.0
2.0 7.0 2.0
3.0 7.0 2.0
4.0 7.0 2.0
5.0 7.0 2.0
6.0 7.0 2.0
7.0 7.0 2.0
8.0 7.0 2.0
9.0 7.0 2.0
10.0 7.0 2.0
0.0 8.0 2.0
1.0 8.0 2.0
2.0 8.0 2.0
3.0 8.0 2.0
4.0 8.0 2.0
5.0 8.0 2.0
6.0 8.0 2.0
7.0 8.0 2.0
8.0 8.0 2.0
9.0 8.0 2.0
10.0 8.0 2.0
0.0 9.0 2.0
1.0 9.0 2.0
2.0 9.0 2.0
3.0 9.0 2.0
4.0 9.0 2.0
5.0 9.0 2.0
6.0 9.0 2.0
7.0 9.0 2.0
8.0 9.0 2.0
9.0 9.0 2.0
10.0 9.0 2.0
0.0 10.0 2.0
1.0 10.0 2.0
2.0 10.0 2.0
3.0 10.0 2.0
4.0 10.0 2.0
5.0 10.0 2.0
6.0 10.0 2.0
7.0 10.0 2.0
8.0 10.0 2.0
9.0 10.0 2.0
10.0 10.0 2.0
0.0 0.0 3.0
1.0 0.0 3.0
2.0 0.0 3.0
3.0 0.0 3.0
4.0 0.0 3.0
5.0 0.0 3.0
6.0 0.0 3.0
7.0 0.0 3.0
8.0 0.0 3.0
9.0 0.0 3.0
10.0 0.0 3.0
0.0 1.0 3.0
1.0 1.0 3.0
2.0 1.0 3.0
3.0 1.0 3.0
4.0 1.0 3.0
5.0 1.0 3.0
6.0 1.0 3.0
7.0 1.0 3.0
8.0 1.0 3.0
9.0 1.0 3.0
10.0 1.0 3.0
0.0 2.0 3.0
1.0 2.0 3.0
2.0 2.0 3.0
3.0 2.0 3.0
4.0 2.0 3.0
5.0 2.0 3.0
6.0 2.0 3.0
7.0 2.0 3.0
8.0 2.0 3.0
9.0 2.0 3.0
10.0 2.0 3.0
0.0 3.0 3.0
1.0 3.0 3.0
2.0 3.0 3.0
3.0 3.0 3.0
4.0 3.0 3.0
5.0 3.0 3.0
6.0 3.0 3.0
7.0 3.0 3.0
8.0 3.0 3.0
9.0 3.0 3.0
10.0 3.0 3.0
0.0 4.0 3.0
1.0 4.0 3.0
2.0 4.0 3.0
3.0 4.0 3.0
4.0 4.0 3.0
5.0 4.0 3.0
6.0 4.0 3.0
7.0 4.0 3.0
8.0 4.0 3.0
9.0 4.0 3.0
10.0 4.0 3.0
0.0 5.0 3.0
1.0 5.0 3.0
2.0 5.0 3.0
3.0 5.0 3.0
4.0 5.0 3.0
5.0 5.0 3.0
6.0 5.0 3.0
7.0 5.0 3.0
8.0 5.0 3.0
9.0 5.0 3.0
10.0 5.0 3.0
0.0 6.0 3.0
1.0 6.0 3.0
2.0 6.0 3.0
3.0 6.0 3.0
4.0 6.0 3.0
5.0 6.0 3.0
6.0 6.0 3.0
7.0 6.0 3.0
8.0 6.0 3.0
9.0 6.0 3.0
10.0 6.0 3.0
0.0 7.0 3.0
1.0 7.0 3.0
2.0 7.0 3.0
3.0 7.0 3.0
4.0 7.0 3.0
5.0 7.0 3.0
6.0 7.0 3.0
7.0 7.0 3.0
8.0 7.0 3.0
9.0 7.0 3.0
10.0 7.0 3.0
0.0 8.0 3.0
1.0 8.0 3.0
2.0 8.0 3.0
3.0 8.0 3.0
4.0 8.0 3.0
5.0 8.0 3.0
6.0 8.0 3.0
7.0 8.0 3.0
8.0 8.0 3.0
9.0 8.0 3.0
10.0 8.0 3.0
0.0 9.0 3.0
1.0 9.0 3.0
2.0 9.0 3.0
3.0 9.0 3.0
4.0 9.0 3.0
5.0 9.0 3.0
6.0 9.0 3.0
7.0 9.0 3.0
8.0 9.0 3.0
9.0 9.0 3.0
10.0 9.0 3.0
0.0 10.0 3.0
1.0 10.0 3.0
2.0 10.0 3.0
3.0 10.0 3.0
4.0 10.0 3.0
5.0 10.0 3.0
6.0 10.0 3.0
7.0 10.0 3.0
8.0 10.0 3.0
9.0 10.0 3.0
10.0 10.0 3.0
0.0 0.0 4.0
1.0 0.0 4.0
2.0 0.0 4.0
3.0 0.0 4.0
4.0 0.0 4.0
5.0 0.0 4.0
6.0 0.0 4.0
7.0 0.0 4.0
8.0 0.0 4.0
9.0 0.0 4.0
10.0 0.0 4.0
0.0 1.0 4.0
1.0 1.0 4.0
2.0 1.0 4.0
3.0 1.0 4.0
4.0 1.0 4.0
5.0 1.0 4.0
6.0 1.0 4.0
7.0 1.0 4.0
8.0 1.0 4.0
9.0 1.0 4.0
10.0 1.0 4.0
0.0 2.0 4.0
1.0 2.0 4.0
2.0 2.0 4.0
3.0 2.0 4.0
4.0 2.0 4.0
5.0 2.0 4.0
6.0 2.0 4.0
7.0 2.0 4.0
8.0 2.0 4.0
9.0 2.0 4.0
10.0 2.0 4.0
0.0 3.0 4.0
1.0 3.0 4.0
2.0 3.0 4.0
3.0 3.0 4.0
4.0 3.0 4.0
5.0 3.0 4.0
6.0 3.0 4.0
7.0 3.0 4.0
8.0 3.0 4.0
9.0 3.0 4.0
10.0 3.0 4.0
0.0 4.0 4.0
1.0 4.0 4.0
2.0 4.0 4.0
3.0 4.0 4.0
4.0 4.0 4.0
5.0 4.0 4.0
6.0 4.0 4.0
7.0 4.0 4.0
8.0 4.0 4.0
9.0 4.0 4.0
10.0 4.0 4.0
0.0 5.0 4.0
1.0 5.0 4.0
2.0 5.0 4.0
3.0 5.0 4.0
4.0 5.0 4.0
5.0 5.0 4.0
6.0 5.0 4.0
7.0 5.0 4.0
8.0 5.0 4.0
9.0 5.0 4.0
10.0 5.0 4.0
0.0 6.0 4.0
1.0 6.0 4.0
2.0 6.0 4.0
3.0 6.0 4.0
4.0 6.0 4.0
5.0 6.0 4.0
6.0 6.0 4.0
7.0 6.0 4.0
8.0 6.0 4.0
9.0 6.0 4.0
10.0 6.0 4.0
0.0 7.0 4.0
1.0 7.0 4.0
2.0 7.0 4.0
3.0 7.0 4.0
4.0 7.0 4.0
5.0 7.0 4.0
6.0 7.0 4.0
7.0 7.0 4.0
8.0 7.0 4.0
9.0 7.0 4.0
10.0 7.0 4.0
0.0 8.0 4.0
1.0 8.0 4.0
2.0 8.0 4.0
3.0 8.0 4.0
4.0 8.0 4.0
5.0 8.0 4.0
6.0 8.0 4.0
7.0 8.0 4.0
8.0 8.0 4.0
9.0 8.0 4.0
10.0 8.0 4.0
0.0 9.0 4.0
1.0 9.0 4.0
2.0 9.0 4.0
3.0 9.0 4.0
4.0 9.0 4.0
5.0 9.0 4.0
6.0 9.0 4.0
7.0 9.0 4.0
8.0 9.0 4.0
9.0 9.0 4.0
10.0 9.0 4.0
0.0 10.0 4.0
1.0 10.0 4.0
2.0 10.0 4.0
3.0 10.0 4.0
4.0 10.0 4.0
5.0 10.0 4.0
6.0 10.0 4.0
7.0 10.0 4.0
8.0 10.0 4.0
9.0 10.0 4.0
10.0 10.0 4.0
0.0 0.0 5.0
1.0 0.0 5.0
2.0 0.0 5.0
3.0 0.0 5.0
4.0 0.0 5.0
5.0 0.0 5.0
6.0 0.0 5.0
7.0 0.0 5.0
8.0 0.0 5.0
9.0 0.0 5.0
10.0 0.0 5.0
0.0 1.0 5.0
1.0 1.0 5.0
2.0 1.0 5.0
3.0 1.0 5.0
4.0 1.0 5.0
5.0 1.0 5.0
6.0 1.0 5.0
7.0 1.0 5.0
8.0 1.0 5.0
9.0 1.0 5.0
10.0 1.0 5.0
0.0 2.0 5.0
1.0 2.0 5.0
2.0 2.0 5.0
3.0 2.0 5.0
4.0 2.0 5.0
5.0 2.0 5.0
6.0 2.0 5.0
7.0 2.0 5.0
8.0 2.0 5.0
9.0 2.0 5.0
10.0 2.0 5.0
0.0 3.0 5.0
1.0 3.0 5.0
2.0 3.0 5.0
3.0 3.0 5.0
4.0 3.0 5.0
5.0 3.0 5.0
6.0 3.0 5.0
7.0 3.0 5.0
8.0 3.0 5.0
9.0 3.0 5.0
10.0 3.0 5.0
0.0 4.0 5.0
1.0 4.0 5.0
2.0 4.0 5.0
3.0 4.0 5.0
4.0 4.0 5.0
5.0 4.0 5.0
6.0 4.0 5.0
7.0 4.0 5.0
8.0 4.0 5.0
9.0 4.0 5.0
10.0 4.0 5.0
0.0 5.0 5.0
1.0 5.0 5.0
2.0 5.0 5.0
3.0 5.0 5.0
4.0 5.0 5.0
5.0 5.0 5.0
6.0 5.0 5.0
7.0 5.0 5.0
8.0 5.0 5.0
9.0 5.0 5.0
10.0 5.0 5.0
0.0 6.0 5.0
1.0 6.0 5.0
2.0 6.0 5.0
3.0 6.0 5.0
4.0 6.0 5.0
5.0 6.0 5.0
6.0 6.0 5.0
7.0 6.0 5.0
8.0 6.0 5.0
9.0 6.0 5.0
10.0 6.0 5.0
0.0 7.0 5.0
1.0 7.0 5.0
2.0 7.0 5.0
3.0 7.0 5.0
4.0 7.0 5.0
5.0 7.0 5.0
6.0 7.0 5.0
7.0 7.0 5.0
8.0 7.0 5.0
9.0 7.0 5.0
10.0 7.0 5.0
0.0 8.0 5.0
1.0 8.0 5.0
2.0 8.0 5.0
3.0 8.0 5.0
4.0 8.0 5.0
5.0 8.0 5.0
6.0 8.0 5.0
7.0 8.0 5.0
8.0 8.0 5.0
9.0 8.0 5.0
10.0 8.0 5.0
0.0 9.0 5.0
1.0 9.0 5.0
2.0 9.0 5.0
3.0 9.0 5.0
4.0 9.0 5.0
5.0 9.0 5.0
6.0 9.0 5.0
7.0 9.0 5.0
8.0 9.0 5.0
9.0 9.0 5.0
10.0 9.0 5.0
0.0 10.0 5.0
1.0 10.0 5.0
2.0 10.0 5.0
3.0 10.0 5.0
4.0 10.0 5.0
5.0 10.0 5.0
6.0 10.0 5.0
7.0 10.0 5.0
8.0 10.0 5.0
9.0 10.0 5.0
10.0 10.0 5.0
0.0 0.0 6.0
1.0 0.0 6.0
2.0 0.0 6.0
3.0 0.0 6.0
4.0 0.0 6.0
5.0 0.0 6.0
6.0 0.0 6.0
7.0 0.0 6.0
8.0 0.0 6.0
9.0 0.0 6.0
10.0 0.0 6.0
0.0 1.0 6.0
1.0 1.0 6.0
2.0 1.0 6.0
3.0 1.0 6.0
4.0 1.0 6.0
5.0 1.0 6.0
6.0 1.0 6.0
7.0 1.0 6.0
8.0 1.0 6.0
9.0 1.0 6.0
10.0 1.0 6.0
0.0 2.0 6.0
1.0 2.0 6.0
2.0 2.0 6.0
3.0 2.0 6.0
4.0 2.0 6.0
5.0 2.0 6.0
6.0 2.0 6.0
7.0 2.0 6.0
8.0 2.0 6.0
9.0 2.0 6.0
10.0 2.0 6.0
0.0 3.0 6.0
1.0 3.0 6.0
2.0 3.0 6.0
3.0 3.0 6.0
4.0 3.0 6.0
5.0 3.0 6.0
6.0 3.0 6.0
7.0 3.0 6.0
8.0 3.0 6.0
9.0 3.0 6.0
10.0 3.0 6.0
0.0 4.0 6.0
1.0 4.0 6.0
2.0 4.0 6.0
3.0 4.0 6.0
4.0 4.0 6.0
5.0 4.0 6.0
6.0 4.0 6.0
7.0 4.0 6.0
8.0 4.0 6.0
9.0 4.0 6.0
10.0 4.0 6.0
0.0 5.0 6.0
1.0 5.0 6.0
2.0 5.0 6.0
3.0 5.0 6.0
4.0 5.0 6.0
5.0 5.0 6.0
6.0 5.0 6.0
7.0 5.0 6.0
8.0 5.0 6.0
9.0 5.0 6.0
10.0 5.0 6.0
0.0 6.0 6.0
1.0 6.0 6.0
2.0 6.0 6.0
3.0 6.0 6.0
4.0 6.0 6.0
5.0 6.0 6.0
6.0 6.0 6.0
7.0 6.0 6.0
8.0 6.0 6.0
9.0 6.0 6.0
10.0 6.0 6.0
0.0 7.0 6.0
1.0 7.0 6.0
2.0 7.0 6.0
3.0 7.0 6.0
4.0 7.0 6.0
5.0 7.0 6.0
6.0 7.0 6.0
7.0 7.0 6.0
8.0 7.0 6.0
9.0 7.0 6.0
[...]
POINT_DATA 1331
SCALARS P double 1
LOOKUP_TABLE default
6.0 6.0 6.0 6.0 6.0 6.0 6.0 6.0 6.0 6.0 6.0 5.80139509 5.80139528 5.80139575 5.80139634 5.8013968 5.80139697 5.8013968 5.80139634 5.80139575 5.80139528 5.80139509 5.60241479 5.60241522 5.60241632 5.60241765 5.60241871 5.6024191 5.60241871 5.60241765 5.60241632 5.60241522 5.60241479 5.40334992 5.40335072 5.40335278 5.40335524 5.40335715 5.40335787 5.40335715 5.40335524 5.40335278 5.40335072 5.40334992 5.20418065 5.20418209 5.20418569 5.20418989 5.20419311 5.20419431 5.20419311 5.20418989 5.20418569 5.20418209 5.20418065 5.00480551 5.00480802 5.0048141 5.00482094 5.00482605 5.00482792 5.00482605 5.00482094 5.0048141 5.00480802 5.00480551 4.80510747 4.80511179 4.80512166 4.80513219 4.80513976 4.80514247 4.80513976 4.80513219 4.80512166 4.80511179 4.80510747 4.60496008 4.60496735 4.60498237 4.60499719 4.60500726 4.60501077 4.60500726 4.60499719 4.60498237 4.60496735 4.60496008 4.40421215 4.40422347 4.40424346 4.40426111 4.40427224 4.40427597 4.40427224 4.40426111 4.40424346 4.40422347 4.40421215 4.20266116 4.20267431 4.20269288 4.20270711 4.20271533 4.20271797 4.20271533 4.20270711 4.20269288 4.20267431 4.20266116 4.0 4.0 4.0 4.0 4.0 4.0 4.0 4.0 4.0 4.0 4.0 6.0 6.0 6.0 6.0 6.0 6.0 6.0 6.0 6.0 6.0 6.0 5.79399617 5.79399646 5.7939972 5.79399808 5.79399877 5.79399903 5.79399877 5.79399808 5.7939972 5.79399646 5.79399617 5.59333836 5.59333905 5.59334082 5.59334292 5.59334455 5.59334516 5.59334455 5.59334292 5.59334082 5.59333905 5.59333836 5.39437976 5.39438121 5.39438481 5.39438897 5.39439216 5.39439333 5.39439216 5.39438897 5.39438481 5.39438121 5.39437976 5.19577445 5.19577746 5.19578464 5.19579259 5.19579846 5.1958006 5.19579846 5.19579259 5.19578464 5.19577746 5.19577445 4.99704557 4.99705212 4.99706657 4.99708153 4.99709204 4.99709575 4.99709204 4.99708153 4.99706657 4.99705212 4.99704557 4.79803849 4.79805386 4.79808352 4.79811115 4.79812914 4.79813525 4.79812914 4.79811115 4.79808352 4.79805386 4.79803849 4.59870814 4.59874749 4.59880864 4.59885739 4.59888588 4.59889504 4.59888588 4.59885739 4.59880864 4.59874749 4.59870814 4.39904859 4.39915432 4.39927384 4.39935059 4.39938928 4.39940081 4.39938928 4.39935059 4.39927384 4.39915432 4.39904859 4.1991598 4.19940767 4.19958907 4.19967636 4.19971261 4.19972239 4.19971261 4.19967636 4.19958907 4.19940767 4.1991598 4.0 4.0 4.0 4.0 4.0 4.0 4.0 4.0 4.0 4.0 4.0 6.0 6.0 6.0 6.0 6.0 6.0 6.0 6.0 6.0 6.0 6.0 5.79460917 5.79460944 5.79461013 5.79461097 5.79461163 5.79461188 5.79461163 5.79461097 5.79461013 5.79460944 5.79460917 5.59245299 5.59245365 5.59245532 5.59245732 5.59245887 5.59245946 5.59245887 5.59245732 5.59245532 5.59245365 5.59245299 5.39206497 5.39206633 5.39206971 5.39207364 5.39207666 5.39207778 5.39207666 5.39207364 5.39206971 5.39206633 5.39206497 5.19252892 5.19253168 5.19253831 5.19254573 5.19255125 5.19255326 5.19255125 5.19254573 5.19253831 5.19253168 5.19252892 4.99337385 4.99337966 4.99339271 4.99340643 4.99341618 4.99341964 4.99341618 4.99340643 4.99339271 4.99337966 4.99337385 4.7943836 4.79439658 4.79442252 4.79444731 4.79446374 4.79446937 4.79446374 4.79444731 4.79442252 4.79439658 4.7943836 4.59546756 4.59549872 4.59555001 4.59559256 4.59561811 4.59562644 4.59561811 4.59559256 4.59555001 4.59549872 4.59546756 4.3966021 4.39667939 4.39677452 4.39683929 4.39687327 4.39688361 4.39687327 4.39683929 4.39677452 4.3966794 4.3966021 4.19788041 4.19804603 4.19818157 4.19825239 4.19828354 4.1982922 4.19828354 4.19825239 4.19818157 4.19804603 4.19788041 4.0 4.0 4.0 4.0 4.0 4.0 4.0 4.0 4.0 4.0 4.0 6.0 6.0 6.0 6.0 6.0 6.0 6.0 6.0 6.0 6.0 6.0 5.79456281 5.794563 5.7945635 5.79456409 5.79456457 5.79456475 5.79456457 5.79456409 5.7945635 5.794563 5.79456281 5.59127146 5.59127192 5.59127308 5.59127447 5.59127557 5.59127598 5.59127557 5.59127447 5.59127308 5.59127192 5.59127146 5.38958867 5.38958956 5.38959181 5.38959446 5.38959652 5.38959729 5.38959652 5.38959446 5.38959181 5.38958956 5.38958867 5.18903038 5.18903207 5.18903623 5.189041 5.18904461 5.18904594 5.18904461 5.189041 5.18903623 5.18903207 5.18903038 4.98926739 4.98927064 4.98927826 4.98928659 4.98929267 4.98929486 4.98929267 4.98928659 4.98927827 4.98927064 4.98926739 4.79011333 4.7901198 4.7901337 4.79014777 4.7901575 4.79016091 4.7901575 4.79014777 4.7901337 4.7901198 4.79011333 4.59149063 4.59150398 4.59152882 4.5915513 4.59156563 4.59157046 4.59156563 4.5915513 4.59152882 4.59150398 4.59149063 4.39341701 4.39344453 4.39348556 4.39351724 4.39353534 4.39354109 4.39353534 4.39351724 4.39348556 4.39344453 4.39341701 4.19605763 4.19610468 4.19615606 4.19618819 4.19620408 4.19620877 4.19620408 4.19618819 4.19615606 4.19610468 4.19605763 4.0 4.0 4.0 4.0 4.0 4.0 4.0 4.0 4.0 4.0 4.0 6.0 6.0 6.0 6.0 6.0 6.0 6.0 6.0 6.0 6.0 6.0 5.83718027 5.83718026 5.83718028 5.83718036 5.83718046 5.8371805 5.83718046 5.83718036 5.83718028 5.83718026 5.83718027 5.67567155 5.67567123 5.67567064 5.6756702 5.67567002 5.67566998 5.67567002 5.6756702 5.67567064 5.67567123 5.67567155 5.54680135 5.54679948 5.54679583 5.54679277 5.54679108 5.54679058 5.54679108 5.54679277 5.54679583 5.54679948 5.54680135 5.42199668 5.4219878 5.42197116 5.42195745 5.42194987 5.42194759 5.42194987 5.42195745 5.42197116 5.4219878 5.42199668 5.29317819 5.29313961 5.29307213 5.29301949 5.29299148 5.29298321 5.29299148 5.29301949 5.29307213 5.29313961 5.29317819 5.16121666 5.161059 5.16080769 5.16062577 5.16053448 5.16050845 5.16053448 5.16062577 5.16080769 5.161059 5.16121666 5.02657848 5.02598031 5.02513282 5.02457254 5.02431081 5.0242393 5.02431081 5.02457254 5.02513282 5.02598031 5.02657848 4.8773505 4.87535345 4.87290388 4.87144578 4.87081764 4.87065419 4.87081764 4.87144578 4.87290388 4.87535345 4.8773505 4.64265081 4.63772971 4.63264156 4.62994523 4.62887926 4.62861564 4.62887926 4.62994523 4.63264156 4.63772971 4.64265081 4.0 4.0 4.0 4.0 4.0 4.0 4.0 4.0 4.0 4.0 4.0 6.0 6.0 6.0 6.0 6.0 6.0 6.0 6.0 6.0 6.0 6.0 5.64653764 5.64653756 5.64653738 5.64653722 5.64653712 5.64653709 5.64653712 5.64653722 5.64653738 5.64653756 5.64653764 5.43396117 5.43396075 5.43395985 5.43395898 5.43395844 5.43395826 5.43395844 5.43395898 5.43395985 5.43396075 5.43396117 5.31197016 5.31196837 5.31196459 5.31196106 5.31195888 5.31195817 5.31195888 5.31196106 5.31196459 5.31196837 5.31197016 5.21360736 5.21360018 5.21358569 5.21357278 5.21356505 5.21356259 5.21356505 5.21357278 5.21358569 5.21360018 5.21360736 5.11698125 5.11695387 5.11690191 5.11685811 5.11683311 5.11682539 5.11683311 5.11685811 5.11690191 5.11695387 5.11698125 5.01823514 5.01813686 5.01796394 5.01782761 5.017754 5.01773201 5.017754 5.01782761 5.01796394 5.01813686 5.01823514 4.91316286 4.91283994 4.91232203 4.91194385 4.91175205 4.91169689 4.91175205 4.91194385 4.91232203 4.91283994 4.91316286 4.77763532 4.77672478 4.77541788 4.77454199 4.774127 4.77401246 4.774127 4.77454199 4.77541788 4.77672478 4.77763532 4.52688964 4.52506954 4.52277299 4.52136912 4.52074891 4.52058468 4.52074891 4.52136912 4.52277299 4.52506954 4.52688964 4.0 4.0 4.0 4.0 4.0 4.0 4.0 4.0 4.0 4.0 4.0 6.0 6.0 6.0 6.0 6.0 6.0 6.0 6.0 6.0 6.0 6.0 5.67376551 5.67376547 5.67376538 5.67376529 5.67376523 5.6737652 5.67376523 5.67376529 5.67376538 5.67376547 5.67376551 5.44697325 5.44697307 5.44697267 5.44697227 5.446972 5.44697191 5.446972 5.44697227 5.44697267 5.44697307 5.44697325 5.27179526 5.27179455 5.27179301 5.27179152 5.27179057 5.27179025 5.27179057 5.27179152 5.27179301 5.27179455 5.27179526 5.10744243 5.10743979 5.10743427 5.10742915 5.10742598 5.10742495 5.10742598 5.10742915 5.10743427 5.10743979 5.10744243 4.94208042 4.94207107 4.94205246 4.94203605 4.94202632 4.94202324 4.94202632 4.94203605 4.94205246 4.94207107 4.94208042 4.77453427 4.77450331 4.7744454 4.77439721 4.77437 4.77436164 4.77437 4.77439721 4.7744454 4.77450331 4.77453427 4.60365598 4.60356329 4.6034023 4.6032768 4.60320964 4.60318968 4.60320964 4.6032768 4.6034023 4.60356329 4.60365598 4.41951788 4.41928294 4.41890898 4.41863736 4.4185001 4.4184607 4.4185001 4.41863736 4.41890898 4.41928294 4.41951788 4.19740841 4.19699332 4.19639392 4.19598911 4.19579573 4.19574204 4.19579573 4.19598911 4.19639392 4.19699332 4.19740841 4.0 4.0 4.0 4.0 4.0 4.0 4.0 4.0 4.0 4.0 4.0 6.0 6.0 6.0 6.0 6.0 6.0 6.0 6.0 6.0 6.0 6.0 5.80704383 5.80704383 5.80704383 5.80704383 5.80704383 5.80704383 5.80704383 5.80704383 5.80704383 5.80704383 5.80704383 5.61284582 5.61284582 5.61284582 5.61284582 5.61284582 5.61284582 5.61284582 5.61284582 5.61284582 5.61284582 5.61284582 5.4171445 5.4171445 5.41714451 5.41714451 5.41714452 5.41714452 5.41714452 5.41714451 5.41714451 5.4171445 5.4171445 5.21976765 5.21976765 5.21976766 5.21976767 5.21976768 5.21976768 5.21976768 5.21976767 5.21976766 5.21976765 5.21976765 5.0206349 5.02063491 5.02063493 5.02063495 5.02063496 5.02063497 5.02063496 5.02063495 5.02063493 5.02063491 5.0206349 4.81974272 4.81974273 4.81974276 4.8197428 4.81974282 4.81974283 4.81974282 4.8197428 4.81974276 4.81974273 4.81974272 4.61714247 4.6171425 4.61714255 4.61714261 4.61714265 4.61714266 4.61714265 4.61714261 4.61714255 4.6171425 4.61714247 4.41291778 4.41291781 4.4129179 4.41291797 4.41291802 4.41291804 4.41291802 4.41291797 4.4129179 4.41291781 4.41291778 4.2071655 4.20716555 4.20716563 4.2071657 4.20716574 4.20716576 4.20716574 4.2071657 4.20716563 4.20716554 4.2071655 4.0 4.0 4.0 4.0 4.0 4.0 4.0 4.0 4.0 4.0 4.0 6.0 6.0 6.0 6.0 6.0 6.0 6.0 6.0 6.0 6.0 6.0 5.80869238 5.80869238 5.80869238 5.80869238 5.80869238 5.80869238 5.80869238 5.80869238 5.80869238 5.80869238 5.80869238 5.61563394 5.61563394 5.61563394 5.61563394 5.61563394 5.61563394 5.61563394 5.61563394 5.61563394 5.61563394 5.61563394 5.42039595 5.42039595 5.42039595 5.42039596 5.42039596 5.42039596 5.42039596 5.42039596 5.42039595 5.42039595 5.42039595 5.2228991 5.22289911 5.22289911 5.22289911 5.22289912 5.22289912 5.22289912 5.22289911 5.22289911 5.22289911 5.2228991 5.02324444 5.02324444 5.02324445 5.02324445 5.02324446 5.02324446 5.02324446 5.02324445 5.02324445 5.02324444 5.02324444 4.82162113 4.82162114 4.82162114 4.82162115 4.82162116 4.82162116 4.82162116 4.82162115 4.82162114 4.82162114 4.82162113 4.61825378 4.61825378 4.6182538 4.61825381 4.61825382 4.61825383 4.61825382 4.61825381 4.6182538 4.61825378 4.61825378 4.41337225 4.41337226 4.41337228 4.4133723 4.41337231 4.41337231 4.41337231 4.4133723 4.41337228 4.41337226 4.41337225 4.20720048 4.20720049 4.2072005 4.20720052 4.20720053 4.20720053 4.20720053 4.20720052 4.2072005 4.20720049 4.20720048 4.0 4.0 4.0 4.0 4.0 4.0 4.0 4.0 4.0 4.0 4.0 6.0 6.0 6.0 6.0 6.0 6.0 6.0 6.0 6.0 6.0 6.0 5.81519144 5.81519144 5.81519144 5.81519144 5.81519144 5.81519144 5.81519144 5.81519144 5.81519144 5.81519144 5.81519144 5.62412725 5.62412725 5.62412725 5.62412725 5.62412725 5.62412725 5.62412725 5.62412725 5.62412725 5.62412725 5.62412725 5.4285896 5.4285896 5.4285896 5.4285896 5.4285896 5.4285896 5.4285896 5.4285896 5.4285896 5.4285896 5.4285896 5.22974037 5.22974037 5.22974037 5.22974038 5.22974038 5.22974038 5.22974038 5.22974038 5.22974037 5.22974037 5.22974037 5.02838967 5.02838967 5.02838967 5.02838967 5.02838967 5.02838968 5.02838967 5.02838967 5.02838967 5.02838967 5.02838967 4.82513161 4.82513161 4.82513161 4.82513161 4.82513161 4.82513162 4.82513161 4.82513161 4.82513161 4.82513161 4.82513161 4.62040878 4.62040878 4.62040878 4.62040879 4.62040879 4.62040879 4.62040879 4.62040879 4.62040878 4.62040878 4.62040878 4.41453382 4.41453382 4.41453382 4.41453383 4.41453383 4.41453383 4.41453383 4.41453383 4.41453382 4.41453382 4.41453382 4.20769311 4.20769311 4.20769311 4.20769311 4.20769312 4.20769312 4.20769312 4.20769311 4.20769311 4.20769311 4.20769311 4.0 4.0 4.0 4.0 4.0 4.0 4.0 4.0 4.0 4.0 4.0 6.0 6.0 6.0 6.0 6.0 6.0 6.0 6.0 6.0 6.0 6.0 5.80486527 5.80486527 5.80486527 5.80486527 5.80486527 5.80486527 5.80486527 5.80486527 5.80486527 5.80486527 5.80486527 5.60952541 5.60952541 5.60952541 5.60952541 5.60952541 5.60952541 5.60952541 5.60952541 5.60952541 5.60952541 5.60952541 5.41269285 5.41269285 5.41269285 5.41269285 5.41269285 5.41269285 5.41269285 5.41269285 5.41269285 5.41269285 5.41269285 5.21402857 5.21402857 5.21402857 5.21402857 5.21402857 5.21402857 5.21402857 5.21402857 5.21402857 5.21402857 5.21402857 5.01362784 5.01362784 5.01362784 5.01362784 5.01362784 5.01362784 5.01362784 5.01362784 5.01362784 5.01362784 5.01362784 4.8117908 4.8117908 4.8117908 4.8117908 4.8117908 4.8117908 4.8117908 4.8117908 4.8117908 4.8117908 4.8117908 4.60893335 4.60893335 4.60893335 4.60893335 4.60893335 4.60893335 4.60893335 4.60893335 4.60893335 4.60893335 4.60893335 4.40557914 4.40557914 4.40557914 4.40557914 4.40557914 4.40557914 4.40557914 4.40557914 4.40557914 4.40557914 4.40557914 4.20235996 4.20235996 4.20235996 4.20235996 4.20235996 4.20235996 4.20235996 4.20235996 4.20235996 4.20235996 4.20235996 4.0 4.0 4.0 4.0 4.0 4.0 4.0 4.0 4.0 4.0 4.0
SCALARS diff_P double 1
LOOKUP_TABLE default