# vtk DataFile Version 2.0
PyFEHM VTK model output
ASCII
DATASET UNSTRUCTURED_GRID
POINTS 1331 double
0.0 0.0 0.0
1.0 0.0 0.0
2.0 0.0 0.0
3.0 0.0 0.0
4.0 0.0 0.0
5.0 0.0 0.0
6.0 0.0 0.0
7.0 0.0 0.0
8.0 0.0 0.0
9.0 0.0 0.0
10.0 0.0 0.0
0.0 1.0 0.0
1.0 1.0 0.0
2.0 1.0 0.0
3.0 1.0 0.0
4.0 1.0 0.0
5.0 1.0 0.0
6.0 1.0 0.0
7.0 1.0 0.0
8.0 1.0 0.0
9.0 1.0 0.0
10.0 1.0 0.0
0.0 2.0 0.0
1.0 2.0 0.0
2.0 2.0 0.0
3.0 2.0 0.0
4.0 2.0 0.0
5.0 2.0 0.0
6.0 2.0 0.0
7.0 2.0 0.0
8.0 2.0 0.0
9.0 2.0 0.0
10.0 2.0 0.0
0.0 3.0 0.0
1.0 3.0 0.0
2.0 3.0 0.0
3.0 3.0 0.0
4.0 3.0 0.0
5.0 3.0 0.0
6.0 3.0 0.0
7.0 3.0 0.0
8.0 3.0 0.0
9.0 3.0 0.0
10.0 3.0 0.0
0.0 4.0 0.0
1.0 4.0 0.0
2.0 4.0 0.0
3.0 4.0 0.0
4.0 4.0 0.0
5.0 4.0 0.0
6.0 4.0 0.0
7.0 4.0 0.0
8.0 4.0 0.0
9.0 4.0 0.0
10.0 4.0 0.0
0.0 5.0 0.0
1.0 5.0 0.0
2.0 5.0 0.0
3.0 5.0 0.0
4.0 5.0 0.0
5.0 5.0 0.0
6.0 5.0 0.0
7.0 5.0 0.0
8.0 5.0 0.0
9.0 5.0 0.0
10.0 5.0 0.0
0.0 6.0 0.0
1.0 6.0 0.0
2.0 6.0 0.0
3.0 6.0 0.0
4.0 6.0 0.0
5.0 6.0 0.0
6.0 6.0 0.0
7.0 6.0 0.0
8.0 6.0 0.0
9.0 6.0 0.0
10.0 6.0 0.0
0.0 7.0 0.0
1.0 7.0 0.0
2.0 7.0 0.0
3.0 7.0 0.0
4.0 7.0 0.0
5.0 7.0 0.0
6.0 7.0 0.0
7.0 7.0 0.0
8.0 7.0 0.0
9.0 7.0 0.0
10.0 7.0 0.0
0.0 8.0 0.0
1.0 8.0 0.0
2.0 8.0 0.0
3.0 8.0 0.0
4.0 8.0 0.0
5.0 8.0 0.0
6.0 8.0 0.0
7.0 8.0 0.0
8.0 8.0 0.0
9.0 8.0 0.0
10.0 8.0 0.0
0.0 9.0 0.0
1.0 9.0 0.0
2.0 9.0 0.0
3.0 9.0 0.0
4.0 9.0 0.0
5.0 9.0 0.0
6.0 9.0 0.0
7.0 9.0 0.0
8.0 9.0 0.0
9.0 9.0 0.0
10.0 9.0 0.0
0.0 10.0 0.0
1.0 10.0 0.0
2.0 10.0 0.0
3.0 10.0 0.0
4.0 10.0 0.0
5.0 10.0 0.0
6.0 10.0 0.0
7.0 10.0 0.0
8.0 10.0 0.0
9.0 10.0 0.0
10.0 10.0 0.0
0.0 0.0 1.0
1.0 0.0 1.0
2.0 0.0 1.0
3.0 0.0 1.0
4.0 0.0 1.0
5.0 0.0 1.0
6.0 0.0 1.0
7.0 0.0 1.0
8.0 0.0 1.0
9.0 0.0 1.0
10.0 0.0 1.0
0.0 1.0 1.0
1.0 1.0 1.0
2.0 1.0 1.0
3.0 1.0 1.0
4.0 1.0 1.0
5.0 1.0 1.0
6.0 1.0 1.0
7.0 1.0 1.0
8.0 1.0 1.0
9.0 1.0 1.0
10.0 1.0 1.0
0.0 2.0 1.0
1.0 2.0 1.0
2.0 2.0 1.0
3.0 2.0 1.0
4.0 2.0 1.0
5.0 2.0 1.0
6.0 2.0 1.0
7.0 2.0 1.0
8.0 2.0 1.0
9.0 2.0 1.0
10.0 2.0 1.0
0.0 3.0 1.0
1.0 3.0 1.0
2.0 3.0 1.0
3.0 3.0 1.0
4.0 3.0 1.0
5.0 3.0 1.0
6.0 3.0 1.0
7.0 3.0 1.0
8.0 3.0 1.0
9.0 3.0 1.0
10.0 3.0 1.0
0.0 4.0 1.0
1.0 4.0 1.0
2.0 4.0 1.0
3.0 4.0 1.0
4.0 4.0 1.0
5.0 4.0 1.0
6.0 4.0 1.0
7.0 4.0 1.0
8.0 4.0 1.0
9.0 4.0 1.0
10.0 4.0 1.0
0.0 5.0 1.0
1.0 5.0 1.0
2.0 5.0 1.0
3.0 5.0 1.0
4.0 5.0 1.0
5.0 5.0 1.0
6.0 5.0 1.0
7.0 5.0 1.0
8.0 5.0 1.0
9.0 5.0 1.0
10.0 5.0 1.0
0.0 6.0 1.0
1.0 6.0 1.0
2.0 6.0 1.0
3.0 6.0 1.0
4.0 6.0 1.0
5.0 6.0 1.0
6.0 6.0 1.0
7.0 6.0 1.0
8.0 6.0 1.0
9.0 6.0 1.0
10.0 6.0 1.0
0.0 7.0 1.0
1.0 7.0 1.0
2.0 7.0 1.0
3.0 7.0 1.0
4.0 7.0 1.0
5.0 7.0 1.0
6.0 7.0 1.0
7.0 7.0 1.0
8.0 7.0 1.0
9.0 7.0 1.0
10.0 7.0 1.0
0.0 8.0 1.0
1.0 8.0 1.0
2.0 8.0 1.0
3.0 8.0 1.0
4.0 8.0 1.0
5.0 8.0 1.0
6.0 8.0 1.0
7.0 8.0 1.0
8.0 8.0 1.0
9.0 8.0 1.0
10.0 8.0 1.0
0.0 9.0 1.0
1.0 9.0 1.0
2.0 9.0 1.0
3.0 9.0 1.0
4.0 9.0 1.0
5.0 9.0 1.0
6.0 9.0 1.0
7.0 9.0 1.0
8.0 9.0 1.0
9.0 9.0 1.0
10.0 9.0 1.0
0.0 10.0 1.0
1.0 10.0 1.0
2.0 10.0 1.0
3.0 10.0 1.0
4.0 10.0 1.0
5.0 10.0 1.0
6.0 10.0 1.0
7.0 10.0 1.0
8.0 10.0 1.0
9.0 10.0 1.0
10.0 10.0 1.0
0.0 0.0 2.0
1.0 0.0 2.0
2.0 0.0 2.0
3.0 0.0 2.0
4.0 0.0 2.0
5.0 0.0 2.0
6.0 0.0 2.0
7.0 0.0 2.0
8.0 0.0 2.0
9.0 0.0 2.0
10.0 0.0 2.0
0.0 1.0 2.0
1.0 1.0 2.0
2.0 1.0 2.0
3.0 1.0 2.0
4.0 1.0 2.0
5.0 1.0 2.0
6.0 1.0 2.0
7.0 1.0 2.0
8.0 1.0 2.0
9.0 1.0 2.0
10.0 1.0 2.0
0.0 2.0 2.0
1.0 2.0 2.0
2.0 2.0 2.0
3.0 2.0 2.0
4.0 2.0 2.0
5.0 2.0 2.0
6.0 2.0 2.0
7.0 2.0 2.0
8.0 2.0 2.0
9.0 2.0 2.0
10.0 2.0 2.0
0.0 3.0 2.0
1.0 3.0 2.0
2.0 3.0 2.0
3.0 3.0 2.0
4.0 3.0 2.0
5.0 3.0 2.0
6.0 3.0 2.0
7.0 3.0 2.0
8.0 3.0 2.0
9.0 3.0 2.0
10.0 3.0 2.0
0.0 4.0 2.0
1.0 4.0 2.0
2.0 4.0 2.0
3.0 4.0 2.0
4.0 4.0 2.0
5.0 4.0 2.0
6.0 4.0 2.0
7.0 4.0 2.0
8.0 4.0 2.0
9.0 4.0 2.0
10.0 4.0 2.0
0.0 5.0 2.0
1.0 5.0 2.0
2.0 5.0 2.0
3.0 5.0 2.0
4.0 5.0 2.0
5.0 5.0 2.0
6.0 5.0 2.0
7.0 5.0 2.0
8.0 5.0 2.0
9.0 5.0 2.0
10.0 5.0 2.0
0.0 6.0 2.0
1.0 6.0 2.0
2.0 6.0 2.0
3.0 6.0 2.0
4.0 6.0 2.0
5.0 6.0 2.0
6.0 6.0 2.0
7.0 6.0 2.0
8.0 6.0 2.0
9.0 6.0 2.0
10.0 6.0 2.0
0.0 7.0 2.0
1.0 7.0 2.0
2.0 7.0 2.0
3.0 7.0 2.0
4.0 7.0 2.0
5.0 7.0 2.0
6.0 7.0 2.0
7.0 7.0 2.0
8.0 7.0 2.0
9.0 7.0 2.0
10.0 7.0 2.0
0.0 8.0 2.0
1.0 8.0 2.0
2.0 8.0 2.0
3.0 8.0 2.0
4.0 8.0 2.0
5.0 8.0 2.0
6.0 8.0 2.0
7.0 8.0 2.0
8.0 8.0 2.0
9.0 8.0 2.0
10.0 8.0 2.0
0.0 9.0 2.0
1.0 9.0 2.0
2.0 9.0 2.0
3.0 9.0 2.0
4.0 9.0 2.0
5.0 9.0 2.0
6.0 9.0 2.0
7.0 9.0 2.0
8.0 9.0 2.0
9.0 9.0 2.0
10.0 9.0 2.0
0.0 10.0 2.0
1.0 10.0 2.0
2.0 10.0 2.0
3.0 10.0 2.0
4.0 10.0 2.0
5.0 10.0 2.0
6.0 10.0 2.0
7.0 10.0 2.0
8.0 10.0 2.0
9.0 10.0 2.0
10.0 10.0 2.0
0.0 0.0 3.0
1.0 0.0 3.0
2.0 0.0 3.0
3.0 0.0 3.0
4.0 0.0 3.0
5.0 0.0 3.0
6.0 0.0 3.0
7.0 0.0 3.0
8.0 0.0 3.0
9.0 0.0 3.0
10.0 0.0 3.0
0.0 1.0 3.0
1.0 1.0 3.0
2.0 1.0 3.0
3.0 1.0 3.0
4.0 1.0 3.0
5.0 1.0 3.0
6.0 1.0 3.0
7.0 1.0 3.0
8.0 1.0 3.0
9.0 1.0 3.0
10.0 1.0 3.0
0.0 2.0 3.0
1.0 2.0 3.0
2.0 2.0 3.0
3.0 2.0 3.0
4.0 2.0 3.0
5.0 2.0 3.0
6.0 2.0 3.0
7.0 2.0 3.0
8.0 2.0 3.0
9.0 2.0 3.0
10.0 2.0 3.0
0.0 3.0 3.0
1.0 3.0 3.0
2.0 3.0 3.0
3.0 3.0 3.0
4.0 3.0 3.0
5.0 3.0 3.0
6.0 3.0 3.0
7.0 3.0 3.0
8.0 3.0 3.0
9.0 3.0 3.0
10.0 3.0 3.0
0.0 4.0 3.0
1.0 4.0 3.0
2.0 4.0 3.0
3.0 4.0 3.0
4.0 4.0 3.0
5.0 4.0 3.0
6.0 4.0 3.0
7.0 4.0 3.0
8.0 4.0 3.0
9.0 4.0 3.0
10.0 4.0 3.0
0.0 5.0 3.0
1.0 5.0 3.0
2.0 5.0 3.0
3.0 5.0 3.0
4.0 5.0 3.0
5.0 5.0 3.0
6.0 5.0 3.0
7.0 5.0 3.0
8.0 5.0 3.0
9.0 5.0 3.0
10.0 5.0 3.0
0.0 6.0 3.0
1.0 6.0 3.0
2.0 6.0 3.0
3.0 6.0 3.0
4.0 6.0 3.0
5.0 6.0 3.0
6.0 6.0 3.0
7.0 6.0 3.0
8.0 6.0 3.0
9.0 6.0 3.0
10.0 6.0 3.0
0.0 7.0 3.0
1.0 7.0 3.0
2.0 7.0 3.0
3.0 7.0 3.0
4.0 7.0 3.0
5.0 7.0 3.0
6.0 7.0 3.0
7.0 7.0 3.0
8.0 7.0 3.0
9.0 7.0 3.0
10.0 7.0 3.0
0.0 8.0 3.0
1.0 8.0 3.0
2.0 8.0 3.0
3.0 8.0 3.0
4.0 8.0 3.0
5.0 8.0 3.0
6.0 8.0 3.0
7.0 8.0 3.0
8.0 8.0 3.0
9.0 8.0 3.0
10.0 8.0 3.0
0.0 9.0 3.0
1.0 9.0 3.0
2.0 9.0 3.0
3.0 9.0 3.0
4.0 9.0 3.0
5.0 9.0 3.0
6.0 9.0 3.0
7.0 9.0 3.0
8.0 9.0 3.0
9.0 9.0 3.0
10.0 9.0 3.0
0.0 10.0 3.0
1.0 10.0 3.0
2.0 10.0 3.0
3.0 10.0 3.0
4.0 10.0 3.0
5.0 10.0 3.0
6.0 10.0 3.0
7.0 10.0 3.0
8.0 10.0 3.0
9.0 10.0 3.0
10.0 10.0 3.0
0.0 0.0 4.0
1.0 0.0 4.0
2.0 0.0 4.0
3.0 0.0 4.0
4.0 0.0 4.0
5.0 0.0 4.0
6.0 0.0 4.0
7.0 0.0 4.0
8.0 0.0 4.0
9.0 0.0 4.0
10.0 0.0 4.0
0.0 1.0 4.0
1.0 1.0 4.0
2.0 1.0 4.0
3.0 1.0 4.0
4.0 1.0 4.0
5.0 1.0 4.0
6.0 1.0 4.0
7.0 1.0 4.0
8.0 1.0 4.0
9.0 1.0 4.0
10.0 1.0 4.0
0.0 2.0 4.0
1.0 2.0 4.0
2.0 2.0 4.0
3.0 2.0 4.0
4.0 2.0 4.0
5.0 2.0 4.0
6.0 2.0 4.0
7.0 2.0 4.0
8.0 2.0 4.0
9.0 2.0 4.0
10.0 2.0 4.0
0.0 3.0 4.0
1.0 3.0 4.0
2.0 3.0 4.0
3.0 3.0 4.0
4.0 3.0 4.0
5.0 3.0 4.0
6.0 3.0 4.0
7.0 3.0 4.0
8.0 3.0 4.0
9.0 3.0 4.0
10.0 3.0 4.0
0.0 4.0 4.0
1.0 4.0 4.0
2.0 4.0 4.0
3.0 4.0 4.0
4.0 4.0 4.0
5.0 4.0 4.0
6.0 4.0 4.0
7.0 4.0 4.0
8.0 4.0 4.0
9.0 4.0 4.0
10.0 4.0 4.0
0.0 5.0 4.0
1.0 5.0 4.0
2.0 5.0 4.0
3.0 5.0 4.0
4.0 5.0 4.0
5.0 5.0 4.0
6.0 5.0 4.0
7.0 5.0 4.0
8.0 5.0 4.0
9.0 5.0 4.0
10.0 5.0 4.0
0.0 6.0 4.0
1.0 6.0 4.0
2.0 6.0 4.0
3.0 6.0 4.0
4.0 6.0 4.0
5.0 6.0 4.0
6.0 6.0 4.0
7.0 6.0 4.0
8.0 6.0 4.0
9.0 6.0 4.0
10.0 6.0 4.0
0.0 7.0 4.0
1.0 7.0 4.0
2.0 7.0 4.0
3.0 7.0 4.0
4.0 7.0 4.0
5.0 7.0 4.0
6.0 7.0 4.0
7.0 7.0 4.0
8.0 7.0 4.0
9.0 7.0 4.0
10.0 7.0 4.0
0.0 8.0 4.0
1.0 8.0 4.0
2.0 8.0 4.0
3.0 8.0 4.0
4.0 8.0 4.0
5.0 8.0 4.0
6.0 8.0 4.0
7.0 8.0 4.0
8.0 8.0 4.0
9.0 8.0 4.0
10.0 8.0 4.0
0.0 9.0 4.0
1.0 9.0 4.0
2.0 9.0 4.0
3.0 9.0 4.0
4.0 9.0 4.0
5.0 9.0 4.0
6.0 9.0 4.0
7.0 9.0 4.0
8.0 9.0 4.0
9.0 9.0 4.0
10.0 9.0 4.0
0.0 10.0 4.0
1.0 10.0 4.0
2.0 10.0 4.0
3.0 10.0 4.0
4.0 10.0 4.0
5.0 10.0 4.0
6.0 10.0 4.0
7.0 10.0 4.0
8.0 10.0 4.0
9.0 10.0 4.0
10.0 10.0 4.0
0.0 0.0 5.0
1.0 0.0 5.0
2.0 0.0 5.0
3.0 0.0 5.0
4.0 0.0 5.0
5.0 0.0 5.0
6.0 0.0 5.0
7.0 0.0 5.0
8.0 0.0 5.0
9.0 0.0 5.0
10.0 0.0 5.0
0.0 1.0 5.0
1.0 1.0 5.0
2.0 1.0 5.0
3.0 1.0 5.0
4.0 1.0 5.0
5.0 1.0 5.0
6.0 1.0 5.0
7.0 1.0 5.0
8.0 1.0 5.0
9.0 1.0 5.0
10.0 1.0 5.0
0.0 2.0 5.0
1.0 2.0 5.0
2.0 2.0 5.0
3.0 2.0 5.0
4.0 2.0 5.0
5.0 2.0 5.0
6.0 2.0 5.0
7.0 2.0 5.0
8.0 2.0 5.0
9.0 2.0 5.0
10.0 2.0 5.0
0.0 3.0 5.0
1.0 3.0 5.0
2.0 3.0 5.0
3.0 3.0 5.0
4.0 3.0 5.0
5.0 3.0 5.0
6.0 3.0 5.0
7.0 3.0 5.0
8.0 3.0 5.0
9.0 3.0 5.0
10.0 3.0 5.0
0.0 4.0 5.0
1.0 4.0 5.0
2.0 4.0 5.0
3.0 4.0 5.0
4.0 4.0 5.0
5.0 4.0 5.0
6.0 4.0 5.0
7.0 4.0 5.0
8.0 4.0 5.0
9.0 4.0 5.0
10.0 4.0 5.0
0.0 5.0 5.0
1.0 5.0 5.0
2.0 5.0 5.0
3.0 5.0 5.0
4.0 5.0 5.0
5.0 5.0 5.0
6.0 5.0 5.0
7.0 5.0 5.0
8.0 5.0 5.0
9.0 5.0 5.0
10.0 5.0 5.0
0.0 6.0 5.0
1.0 6.0 5.0
2.0 6.0 5.0
3.0 6.0 5.0
4.0 6.0 5.0
5.0 6.0 5.0
6.0 6.0 5.0
7.0 6.0 5.0
8.0 6.0 5.0
9.0 6.0 5.0
10.0 6.0 5.0
0.0 7.0 5.0
1.0 7.0 5.0
2.0 7.0 5.0
3.0 7.0 5.0
4.0 7.0 5.0
5.0 7.0 5.0
6.0 7.0 5.0
7.0 7.0 5.0
8.0 7.0 5.0
9.0 7.0 5.0
10.0 7.0 5.0
0.0 8.0 5.0
1.0 8.0 5.0
2.0 8.0 5.0
3.0 8.0 5.0
4.0 8.0 5.0
5.0 8.0 5.0
6.0 8.0 5.0
7.0 8.0 5.0
8.0 8.0 5.0
9.0 8.0 5.0
10.0 8.0 5.0
0.0 9.0 5.0
1.0 9.0 5.0
2.0 9.0 5.0
3.0 9.0 5.0
4.0 9.0 5.0
5.0 9.0 5.0
6.0 9.0 5.0
7.0 9.0 5.0
8.0 9.0 5.0
9.0 9.0 5.0
10.0 9.0 5.0
0.0 10.0 5.0
1.0 10.0 5.0
2.0 10.0 5.0
3.0 10.0 5.0
4.0 10.0 5.0
5.0 10.0 5.0
6.0 10.0 5.0
7.0 10.0 5.0
8.0 10.0 5.0
9.0 10.0 5.0
10.0 10.0 5.0
0.0 0.0 6.0
1.0 0.0 6.0
2.0 0.0 6.0
3.0 0.0 6.0
4.0 0.0 6.0
5.0 0.0 6.0
6.0 0.0 6.0
7.0 0.0 6.0
8.0 0.0 6.0
9.0 0.0 6.0
10.0 0.0 6.0
0.0 1.0 6.0
1.0 1.0 6.0
2.0 1.0 6.0
3.0 1.0 6.0
4.0 1.0 6.0
5.0 1.0 6.0
6.0 1.0 6.0
7.0 1.0 6.0
8.0 1.0 6.0
9.0 1.0 6.0
10.0 1.0 6.0
0.0 2.0 6.0
1.0 2.0 6.0
2.0 2.0 6.0
3.0 2.0 6.0
4.0 2.0 6.0
5.0 2.0 6.0
6.0 2.0 6.0
7.0 2.0 6.0
8.0 2.0 6.0
9.0 2.0 6.0
10.0 2.0 6.0
0.0 3.0 6.0
1.0 3.0 6.0
2.0 3.0 6.0
3.0 3.0 6.0
4.0 3.0 6.0
5.0 3.0 6.0
6.0 3.0 6.0
7.0 3.0 6.0
8.0 3.0 6.0
9.0 3.0 6.0
10.0 3.0 6.0
0.0 4.0 6.0
1.0 4.0 6.0
2.0 4.0 6.0
3.0 4.0 6.0
4.0 4.0 6.0
5.0 4.0 6.0
6.0 4.0 6.0
7.0 4.0 6.0
8.0 4.0 6.0
9.0 4.0 6.0
10.0 4.0 6.0
0.0 5.0 6.0
1.0 5.0 6.0
2.0 5.0 6.0
3.0 5.0 6.0
4.0 5.0 6.0
5.0 5.0 6.0
6.0 5.0 6.0
7.0 5.0 6.0
8.0 5.0 6.0
9.0 5.0 6.0
10.0 5.0 6.0
0.0 6.0 6.0
1.0 6.0 6.0
2.0 6.0 6.0
3.0 6.0 6.0
4.0 6.0 6.0
5.0 6.0 6.0
6.0 6.0 6.0
7.0 6.0 6.0
8.0 6.0 6.0
9.0 6.0 6.0
10.0 6.0 6.0
0.0 7.0 6.0
1.0 7.0 6.0
2.0 7.0 6.0
3.0 7.0 6.0
4.0 7.0 6.0
5.0 7.0 6.0
6.0 7.0 6.0
7.0 7.0 6.0
8.0 7.0 6.0
9.0 7.0 6.0
[...]
POINT_DATA 1331
SCALARS P double 1
LOOKUP_TABLE default
6.0 6.0 6.0 6.0 6.0 6.0 6.0 6.0 6.0 6.0 6.0 5.80260088 5.80260094 5.80260108 5.80260126 5.8026014 5.80260145 5.8026014 5.80260126 5.80260108 5.80260094 5.80260088 5.60450489 5.60450503 5.60450537 5.60450577 5.6045061 5.60450622 5.6045061 5.60450577 5.60450537 5.60450503 5.60450489 5.40592789 5.40592814 5.40592878 5.40592954 5.40593014 5.40593036 5.40593014 5.40592954 5.40592878 5.40592814 5.40592789 5.20689871 5.20689917 5.20690031 5.20690163 5.20690264 5.20690301 5.20690264 5.20690163 5.20690031 5.20689917 5.20689871 5.00739679 5.00739761 5.00739957 5.00740175 5.00740337 5.00740396 5.00740337 5.00740175 5.00739957 5.00739761 5.00739679 4.80737913 4.80738059 4.80738386 4.80738728 4.80738971 4.80739058 4.80738971 4.80738728 4.80738386 4.80738059 4.80737913 4.60677613 4.60677871 4.60678384 4.60678876 4.60679205 4.60679318 4.60679205 4.60678876 4.60678384 4.60677871 4.60677613 4.40547739 4.40548168 4.40548878 4.40549479 4.40549847 4.40549969 4.40549847 4.40549479 4.40548878 4.40548168 4.40547739 4.20331023 4.20331559 4.20332252 4.2033275 4.20333026 4.20333113 4.20333026 4.2033275 4.20332252 4.20331559 4.20331023 4.0 4.0 4.0 4.0 4.0 4.0 4.0 4.0 4.0 4.0 4.0 6.0 6.0 6.0 6.0 6.0 6.0 6.0 6.0 6.0 6.0 6.0 5.79715237 5.79715245 5.79715267 5.79715292 5.79715312 5.79715319 5.79715312 5.79715292 5.79715267 5.79715245 5.79715237 5.59776555 5.59776576 5.59776627 5.59776688 5.59776736 5.59776753 5.59776736 5.59776688 5.59776627 5.59776576 5.59776555 5.39901365 5.39901408 5.39901516 5.39901639 5.39901733 5.39901767 5.39901733 5.39901639 5.39901516 5.39901408 5.39901365 5.20010156 5.20010249 5.20010468 5.20010707 5.20010883 5.20010946 5.20010883 5.20010707 5.20010468 5.20010249 5.20010156 5.00084675 5.00084885 5.00085338 5.00085797 5.00086116 5.00086227 5.00086116 5.00085797 5.00085338 5.00084885 5.00084675 4.80122902 4.80123424 4.80124385 4.80125253 4.80125805 4.80125991 4.80125805 4.80125253 4.80124385 4.80123424 4.80122902 4.60125878 4.60127323 4.60129397 4.6013097 4.60131859 4.60132141 4.60131859 4.6013097 4.60129397 4.60127323 4.60125878 4.40094785 4.40099084 4.40103398 4.4010596 4.40107188 4.40107546 4.40107188 4.4010596 4.40103398 4.40099084 4.40094785 4.2003504 4.20046402 4.20053507 4.20056555 4.20057729 4.20058034 4.20057729 4.20056555 4.20053507 4.20046402 4.2003504 4.0 4.0 4.0 4.0 4.0 4.0 4.0 4.0 4.0 4.0 4.0 6.0 6.0 6.0 6.0 6.0 6.0 6.0 6.0 6.0 6.0 6.0 5.79754052 5.79754058 5.79754072 5.79754089 5.79754103 5.79754108 5.79754103 5.79754089 5.79754072 5.79754058 5.79754052 5.59673207 5.5967322 5.59673255 5.59673296 5.59673329 5.59673341 5.59673329 5.59673296 5.59673255 5.5967322 5.59673207 5.39665513 5.39665541 5.3966561 5.39665691 5.39665753 5.39665776 5.39665753 5.39665691 5.3966561 5.39665541 5.39665513 5.19686996 5.19687051 5.19687184 5.19687334 5.19687446 5.19687487 5.19687446 5.19687334 5.19687184 5.19687051 5.19686996 4.99720526 4.99720639 4.99720897 4.99721169 4.99721363 4.99721432 4.99721363 4.99721169 4.99720897 4.99720639 4.99720526 4.79760138 4.79760388 4.7976089 4.79761372 4.79761693 4.79761803 4.79761693 4.79761372 4.7976089 4.79760388 4.79760138 4.59803859 4.59804453 4.59805432 4.59806245 4.59806735 4.59806895 4.59806735 4.59806245 4.59805432 4.59804453 4.59803859 4.3985126 4.3985273 4.39854542 4.39855769 4.3985641 4.39856605 4.3985641 4.39855769 4.39854542 4.3985273 4.3985126 4.19905975 4.19909063 4.19911674 4.19913023 4.19913608 4.19913769 4.19913608 4.19913023 4.19911674 4.19909063 4.19905975 4.0 4.0 4.0 4.0 4.0 4.0 4.0 4.0 4.0 4.0 4.0 6.0 6.0 6.0 6.0 6.0 6.0 6.0 6.0 6.0 6.0 6.0 5.79654555 5.79654558 5.79654566 5.79654576 5.79654583 5.79654586 5.79654583 5.79654576 5.79654566 5.79654558 5.79654555 5.59436635 5.59436642 5.59436661 5.59436682 5.594367 5.59436706 5.594367 5.59436682 5.59436661 5.59436642 5.59436635 5.39310837 5.3931085 5.39310884 5.39310925 5.39310956 5.39310968 5.39310956 5.39310925 5.39310884 5.3931085 5.39310837 5.19252316 5.19252341 5.19252402 5.19252472 5.19252526 5.19252546 5.19252526 5.19252472 5.19252402 5.19252341 5.19252316 4.99247019 4.99247064 4.99247171 4.99247289 4.99247376 4.99247408 4.99247376 4.99247289 4.99247171 4.99247064 4.99247019 4.79288542 4.79288628 4.79288815 4.79289007 4.79289141 4.79289188 4.79289141 4.79289007 4.79288815 4.79288628 4.79288542 4.59376046 4.59376219 4.59376543 4.59376838 4.59377028 4.59377092 4.59377028 4.59376838 4.59376543 4.59376219 4.59376046 4.39513729 4.39514083 4.39514608 4.39515012 4.39515244 4.39515318 4.39515244 4.39515012 4.39514608 4.39514083 4.39513729 4.19712651 4.19713254 4.19713911 4.19714314 4.19714512 4.19714571 4.19714512 4.19714314 4.19713911 4.19713254 4.19712651 4.0 4.0 4.0 4.0 4.0 4.0 4.0 4.0 4.0 4.0 4.0 6.0 6.0 6.0 6.0 6.0 6.0 6.0 6.0 6.0 6.0 6.0 5.55682222 5.55682223 5.55682225 5.55682227 5.55682229 5.5568223 5.55682229 5.55682227 5.55682225 5.55682223 5.55682222 5.3710032 5.3710032 5.37100323 5.37100328 5.37100331 5.37100333 5.37100331 5.37100328 5.37100323 5.3710032 5.3710032 5.26570191 5.26570189 5.26570188 5.26570192 5.26570196 5.26570198 5.26570196 5.26570192 5.26570188 5.26570189 5.26570191 5.17336258 5.17336231 5.17336197 5.17336181 5.1733618 5.1733618 5.1733618 5.17336181 5.17336197 5.17336231 5.17336258 5.08227903 5.08227722 5.08227488 5.08227357 5.08227312 5.08227302 5.08227312 5.08227357 5.08227488 5.08227722 5.08227903 4.99112905 4.99111883 4.99110642 4.99109969 4.99109721 4.99109665 4.99109721 4.99109969 4.99110642 4.99111883 4.99112905 4.89830604 4.89825486 4.89819866 4.89817025 4.89816021 4.898158 4.89816021 4.89817025 4.89819866 4.89825486 4.89830604 4.79088832 4.79067198 4.79046094 4.79036325 4.79033101 4.79032418 4.79033101 4.79036325 4.79046094 4.79067198 4.79088832 4.59151001 4.59086179 4.59030589 4.59007187 4.59000025 4.58998582 4.59000025 4.59007187 4.59030589 4.59086179 4.59151001 4.0 4.0 4.0 4.0 4.0 4.0 4.0 4.0 4.0 4.0 4.0 6.0 6.0 6.0 6.0 6.0 6.0 6.0 6.0 6.0 6.0 6.0 5.36461834 5.36461835 5.36461835 5.36461835 5.36461835 5.36461835 5.36461835 5.36461835 5.36461835 5.36461835 5.36461834 5.16186337 5.16186337 5.16186337 5.16186337 5.16186337 5.16186337 5.16186337 5.16186337 5.16186337 5.16186337 5.16186337 5.09467816 5.09467814 5.0946781 5.09467808 5.09467807 5.09467807 5.09467807 5.09467808 5.0946781 5.09467814 5.09467816 5.05253119 5.05253105 5.05253082 5.05253066 5.0525306 5.05253058 5.0525306 5.05253066 5.05253082 5.05253105 5.05253119 5.01400176 5.01400095 5.01399977 5.01399901 5.01399868 5.0139986 5.01399868 5.01399901 5.01399977 5.01400095 5.01400176 4.97580796 4.97580397 4.97579855 4.97579527 4.97579391 4.97579358 4.97579391 4.97579527 4.97579855 4.97580397 4.97580796 4.93441673 4.93439911 4.93437726 4.934365 4.93436023 4.93435909 4.93436023 4.934365 4.93437726 4.93439911 4.93441673 4.86772112 4.86765616 4.86758348 4.8675459 4.86753223 4.86752912 4.86753223 4.8675459 4.86758348 4.86765616 4.86772112 4.66280223 4.66263736 4.66247196 4.66239327 4.66236652 4.66236071 4.66236652 4.66239327 4.66247196 4.66263736 4.66280223 4.0 4.0 4.0 4.0 4.0 4.0 4.0 4.0 4.0 4.0 4.0 6.0 6.0 6.0 6.0 6.0 6.0 6.0 6.0 6.0 6.0 6.0 5.49433332 5.49433332 5.49433332 5.49433332 5.49433332 5.49433332 5.49433332 5.49433332 5.49433332 5.49433332 5.49433332 5.28675152 5.28675152 5.28675152 5.28675152 5.28675152 5.28675152 5.28675152 5.28675152 5.28675152 5.28675152 5.28675152 5.1661069 5.1661069 5.16610688 5.16610687 5.16610687 5.16610687 5.16610687 5.16610687 5.16610688 5.1661069 5.1661069 5.06057298 5.06057294 5.06057287 5.06057282 5.0605728 5.06057279 5.0605728 5.06057282 5.06057287 5.06057294 5.06057298 4.95759866 4.95759847 4.95759815 4.95759794 4.95759784 4.95759781 4.95759784 4.95759794 4.95759815 4.95759847 4.95759866 4.85573187 4.85573098 4.85572965 4.8557288 4.85572842 4.85572832 4.85572842 4.8557288 4.85572965 4.85573098 4.85573187 4.75306778 4.75306418 4.75305927 4.7530563 4.75305506 4.75305475 4.75305506 4.7530563 4.75305927 4.75306418 4.75306778 4.63633216 4.63632015 4.6363052 4.63629678 4.63629347 4.63629268 4.63629347 4.63629678 4.6363052 4.63632015 4.63633216 4.43775175 4.43772453 4.43769363 4.4376774 4.4376714 4.43767002 4.4376714 4.4376774 4.43769363 4.43772453 4.43775175 4.0 4.0 4.0 4.0 4.0 4.0 4.0 4.0 4.0 4.0 4.0 6.0 6.0 6.0 6.0 6.0 6.0 6.0 6.0 6.0 6.0 6.0 5.80533051 5.80533051 5.80533051 5.80533051 5.80533051 5.80533051 5.80533051 5.80533051 5.80533051 5.80533051 5.80533051 5.60952803 5.60952803 5.60952803 5.60952803 5.60952803 5.60952803 5.60952803 5.60952803 5.60952803 5.60952803 5.60952803 5.41245628 5.41245628 5.41245628 5.41245629 5.41245629 5.41245629 5.41245629 5.41245629 5.41245628 5.41245628 5.41245628 5.21407492 5.21407492 5.21407492 5.21407492 5.21407492 5.21407492 5.21407492 5.21407492 5.21407492 5.21407492 5.21407492 5.01442232 5.01442232 5.01442232 5.01442232 5.01442232 5.01442232 5.01442232 5.01442232 5.01442232 5.01442232 5.01442232 4.81358308 4.81358308 4.81358308 4.81358308 4.81358308 4.81358308 4.81358308 4.81358308 4.81358308 4.81358308 4.81358308 4.61165514 4.61165514 4.61165514 4.61165514 4.61165514 4.61165514 4.61165514 4.61165514 4.61165514 4.61165514 4.61165514 4.4087226 4.4087226 4.4087226 4.4087226 4.40872261 4.40872261 4.40872261 4.4087226 4.4087226 4.4087226 4.4087226 4.2048354 4.2048354 4.2048354 4.20483541 4.20483541 4.20483541 4.20483541 4.20483541 4.2048354 4.2048354 4.2048354 4.0 4.0 4.0 4.0 4.0 4.0 4.0 4.0 4.0 4.0 4.0 6.0 6.0 6.0 6.0 6.0 6.0 6.0 6.0 6.0 6.0 6.0 5.80625425 5.80625425 5.80625425 5.80625425 5.80625425 5.80625425 5.80625425 5.80625425 5.80625425 5.80625425 5.80625425 5.61092212 5.61092212 5.61092212 5.61092212 5.61092212 5.61092212 5.61092212 5.61092212 5.61092212 5.61092212 5.61092212 5.41374364 5.41374364 5.41374364 5.41374364 5.41374364 5.41374364 5.41374364 5.41374364 5.41374364 5.41374364 5.41374364 5.21482795 5.21482795 5.21482795 5.21482795 5.21482795 5.21482795 5.21482795 5.21482795 5.21482795 5.21482795 5.21482795 5.01444216 5.01444216 5.01444216 5.01444216 5.01444216 5.01444216 5.01444216 5.01444216 5.01444216 5.01444216 5.01444216 4.81289107 4.81289107 4.81289107 4.81289107 4.81289107 4.81289107 4.81289107 4.81289107 4.81289107 4.81289107 4.81289107 4.61045574 4.61045574 4.61045574 4.61045574 4.61045574 4.61045574 4.61045574 4.61045574 4.61045574 4.61045574 4.61045574 4.40737031 4.40737031 4.40737031 4.40737031 4.40737031 4.40737031 4.40737031 4.40737031 4.40737031 4.40737031 4.40737031 4.20382515 4.20382515 4.20382515 4.20382515 4.20382515 4.20382515 4.20382515 4.20382515 4.20382515 4.20382515 4.20382515 4.0 4.0 4.0 4.0 4.0 4.0 4.0 4.0 4.0 4.0 4.0 6.0 6.0 6.0 6.0 6.0 6.0 6.0 6.0 6.0 6.0 6.0 5.8120696 5.8120696 5.8120696 5.8120696 5.8120696 5.8120696 5.8120696 5.8120696 5.8120696 5.8120696 5.8120696 5.61811365 5.61811365 5.61811365 5.61811365 5.61811365 5.61811365 5.61811365 5.61811365 5.61811365 5.61811365 5.61811365 5.42015634 5.42015634 5.42015634 5.42015634 5.42015634 5.42015634 5.42015634 5.42015634 5.42015634 5.42015634 5.42015634 5.21961414 5.21961414 5.21961414 5.21961414 5.21961414 5.21961414 5.21961414 5.21961414 5.21961414 5.21961414 5.21961414 5.01748734 5.01748734 5.01748734 5.01748734 5.01748734 5.01748734 5.01748734 5.01748734 5.01748734 5.01748734 5.01748734 4.81446421 4.81446421 4.81446421 4.81446421 4.81446421 4.81446421 4.81446421 4.81446421 4.81446421 4.81446421 4.81446421 4.61099115 4.61099115 4.61099115 4.61099115 4.61099115 4.61099115 4.61099115 4.61099115 4.61099115 4.61099115 4.61099115 4.40734193 4.40734193 4.40734193 4.40734193 4.40734193 4.40734193 4.40734193 4.40734193 4.40734193 4.40734193 4.40734193 4.20366293 4.20366293 4.20366293 4.20366293 4.20366293 4.20366293 4.20366293 4.20366293 4.20366293 4.20366293 4.20366293 4.0 4.0 4.0 4.0 4.0 4.0 4.0 4.0 4.0 4.0 4.0 6.0 6.0 6.0 6.0 6.0 6.0 6.0 6.0 6.0 6.0 6.0 5.80245999 5.80245999 5.80245999 5.80245999 5.80245999 5.80245999 5.80245999 5.80245999 5.80245999 5.80245999 5.80245999 5.60492348 5.60492348 5.60492348 5.60492348 5.60492348 5.60492348 5.60492348 5.60492348 5.60492348 5.60492348 5.60492348 5.40631278 5.40631278 5.40631278 5.40631278 5.40631278 5.40631278 5.40631278 5.40631278 5.40631278 5.40631278 5.40631278 5.20645714 5.20645714 5.20645714 5.20645714 5.20645714 5.20645714 5.20645714 5.20645714 5.20645714 5.20645714 5.20645714 5.00557813 5.00557813 5.00557813 5.00557813 5.00557813 5.00557813 5.00557813 5.00557813 5.00557813 5.00557813 5.00557813 4.80404906 4.80404906 4.80404906 4.80404906 4.80404906 4.80404906 4.80404906 4.80404906 4.80404906 4.80404906 4.80404906 4.60230449 4.60230449 4.60230449 4.60230449 4.60230449 4.60230449 4.60230449 4.60230449 4.60230449 4.60230449 4.60230449 4.40074799 4.40074799 4.40074799 4.40074799 4.40074799 4.40074799 4.40074799 4.40074799 4.40074799 4.40074799 4.40074799 4.19979793 4.19979793 4.19979793 4.19979793 4.19979793 4.19979793 4.19979793 4.19979793 4.19979793 4.19979793 4.19979793 4.0 4.0 4.0 4.0 4.0 4.0 4.0 4.0 4.0 4.0 4.0
SCALARS diff_P double 1
LOOKUP_TABLE default