# vtk DataFile Version 2.0
PyFEHM VTK model output
ASCII
DATASET UNSTRUCTURED_GRID
POINTS 1331 double
0.0 0.0 0.0
1.0 0.0 0.0
2.0 0.0 0.0
3.0 0.0 0.0
4.0 0.0 0.0
5.0 0.0 0.0
6.0 0.0 0.0
7.0 0.0 0.0
8.0 0.0 0.0
9.0 0.0 0.0
10.0 0.0 0.0
0.0 1.0 0.0
1.0 1.0 0.0
2.0 1.0 0.0
3.0 1.0 0.0
4.0 1.0 0.0
5.0 1.0 0.0
6.0 1.0 0.0
7.0 1.0 0.0
8.0 1.0 0.0
9.0 1.0 0.0
10.0 1.0 0.0
0.0 2.0 0.0
1.0 2.0 0.0
2.0 2.0 0.0
3.0 2.0 0.0
4.0 2.0 0.0
5.0 2.0 0.0
6.0 2.0 0.0
7.0 2.0 0.0
8.0 2.0 0.0
9.0 2.0 0.0
10.0 2.0 0.0
0.0 3.0 0.0
1.0 3.0 0.0
2.0 3.0 0.0
3.0 3.0 0.0
4.0 3.0 0.0
5.0 3.0 0.0
6.0 3.0 0.0
7.0 3.0 0.0
8.0 3.0 0.0
9.0 3.0 0.0
10.0 3.0 0.0
0.0 4.0 0.0
1.0 4.0 0.0
2.0 4.0 0.0
3.0 4.0 0.0
4.0 4.0 0.0
5.0 4.0 0.0
6.0 4.0 0.0
7.0 4.0 0.0
8.0 4.0 0.0
9.0 4.0 0.0
10.0 4.0 0.0
0.0 5.0 0.0
1.0 5.0 0.0
2.0 5.0 0.0
3.0 5.0 0.0
4.0 5.0 0.0
5.0 5.0 0.0
6.0 5.0 0.0
7.0 5.0 0.0
8.0 5.0 0.0
9.0 5.0 0.0
10.0 5.0 0.0
0.0 6.0 0.0
1.0 6.0 0.0
2.0 6.0 0.0
3.0 6.0 0.0
4.0 6.0 0.0
5.0 6.0 0.0
6.0 6.0 0.0
7.0 6.0 0.0
8.0 6.0 0.0
9.0 6.0 0.0
10.0 6.0 0.0
0.0 7.0 0.0
1.0 7.0 0.0
2.0 7.0 0.0
3.0 7.0 0.0
4.0 7.0 0.0
5.0 7.0 0.0
6.0 7.0 0.0
7.0 7.0 0.0
8.0 7.0 0.0
9.0 7.0 0.0
10.0 7.0 0.0
0.0 8.0 0.0
1.0 8.0 0.0
2.0 8.0 0.0
3.0 8.0 0.0
4.0 8.0 0.0
5.0 8.0 0.0
6.0 8.0 0.0
7.0 8.0 0.0
8.0 8.0 0.0
9.0 8.0 0.0
10.0 8.0 0.0
0.0 9.0 0.0
1.0 9.0 0.0
2.0 9.0 0.0
3.0 9.0 0.0
4.0 9.0 0.0
5.0 9.0 0.0
6.0 9.0 0.0
7.0 9.0 0.0
8.0 9.0 0.0
9.0 9.0 0.0
10.0 9.0 0.0
0.0 10.0 0.0
1.0 10.0 0.0
2.0 10.0 0.0
3.0 10.0 0.0
4.0 10.0 0.0
5.0 10.0 0.0
6.0 10.0 0.0
7.0 10.0 0.0
8.0 10.0 0.0
9.0 10.0 0.0
10.0 10.0 0.0
0.0 0.0 1.0
1.0 0.0 1.0
2.0 0.0 1.0
3.0 0.0 1.0
4.0 0.0 1.0
5.0 0.0 1.0
6.0 0.0 1.0
7.0 0.0 1.0
8.0 0.0 1.0
9.0 0.0 1.0
10.0 0.0 1.0
0.0 1.0 1.0
1.0 1.0 1.0
2.0 1.0 1.0
3.0 1.0 1.0
4.0 1.0 1.0
5.0 1.0 1.0
6.0 1.0 1.0
7.0 1.0 1.0
8.0 1.0 1.0
9.0 1.0 1.0
10.0 1.0 1.0
0.0 2.0 1.0
1.0 2.0 1.0
2.0 2.0 1.0
3.0 2.0 1.0
4.0 2.0 1.0
5.0 2.0 1.0
6.0 2.0 1.0
7.0 2.0 1.0
8.0 2.0 1.0
9.0 2.0 1.0
10.0 2.0 1.0
0.0 3.0 1.0
1.0 3.0 1.0
2.0 3.0 1.0
3.0 3.0 1.0
4.0 3.0 1.0
5.0 3.0 1.0
6.0 3.0 1.0
7.0 3.0 1.0
8.0 3.0 1.0
9.0 3.0 1.0
10.0 3.0 1.0
0.0 4.0 1.0
1.0 4.0 1.0
2.0 4.0 1.0
3.0 4.0 1.0
4.0 4.0 1.0
5.0 4.0 1.0
6.0 4.0 1.0
7.0 4.0 1.0
8.0 4.0 1.0
9.0 4.0 1.0
10.0 4.0 1.0
0.0 5.0 1.0
1.0 5.0 1.0
2.0 5.0 1.0
3.0 5.0 1.0
4.0 5.0 1.0
5.0 5.0 1.0
6.0 5.0 1.0
7.0 5.0 1.0
8.0 5.0 1.0
9.0 5.0 1.0
10.0 5.0 1.0
0.0 6.0 1.0
1.0 6.0 1.0
2.0 6.0 1.0
3.0 6.0 1.0
4.0 6.0 1.0
5.0 6.0 1.0
6.0 6.0 1.0
7.0 6.0 1.0
8.0 6.0 1.0
9.0 6.0 1.0
10.0 6.0 1.0
0.0 7.0 1.0
1.0 7.0 1.0
2.0 7.0 1.0
3.0 7.0 1.0
4.0 7.0 1.0
5.0 7.0 1.0
6.0 7.0 1.0
7.0 7.0 1.0
8.0 7.0 1.0
9.0 7.0 1.0
10.0 7.0 1.0
0.0 8.0 1.0
1.0 8.0 1.0
2.0 8.0 1.0
3.0 8.0 1.0
4.0 8.0 1.0
5.0 8.0 1.0
6.0 8.0 1.0
7.0 8.0 1.0
8.0 8.0 1.0
9.0 8.0 1.0
10.0 8.0 1.0
0.0 9.0 1.0
1.0 9.0 1.0
2.0 9.0 1.0
3.0 9.0 1.0
4.0 9.0 1.0
5.0 9.0 1.0
6.0 9.0 1.0
7.0 9.0 1.0
8.0 9.0 1.0
9.0 9.0 1.0
10.0 9.0 1.0
0.0 10.0 1.0
1.0 10.0 1.0
2.0 10.0 1.0
3.0 10.0 1.0
4.0 10.0 1.0
5.0 10.0 1.0
6.0 10.0 1.0
7.0 10.0 1.0
8.0 10.0 1.0
9.0 10.0 1.0
10.0 10.0 1.0
0.0 0.0 2.0
1.0 0.0 2.0
2.0 0.0 2.0
3.0 0.0 2.0
4.0 0.0 2.0
5.0 0.0 2.0
6.0 0.0 2.0
7.0 0.0 2.0
8.0 0.0 2.0
9.0 0.0 2.0
10.0 0.0 2.0
0.0 1.0 2.0
1.0 1.0 2.0
2.0 1.0 2.0
3.0 1.0 2.0
4.0 1.0 2.0
5.0 1.0 2.0
6.0 1.0 2.0
7.0 1.0 2.0
8.0 1.0 2.0
9.0 1.0 2.0
10.0 1.0 2.0
0.0 2.0 2.0
1.0 2.0 2.0
2.0 2.0 2.0
3.0 2.0 2.0
4.0 2.0 2.0
5.0 2.0 2.0
6.0 2.0 2.0
7.0 2.0 2.0
8.0 2.0 2.0
9.0 2.0 2.0
10.0 2.0 2.0
0.0 3.0 2.0
1.0 3.0 2.0
2.0 3.0 2.0
3.0 3.0 2.0
4.0 3.0 2.0
5.0 3.0 2.0
6.0 3.0 2.0
7.0 3.0 2.0
8.0 3.0 2.0
9.0 3.0 2.0
10.0 3.0 2.0
0.0 4.0 2.0
1.0 4.0 2.0
2.0 4.0 2.0
3.0 4.0 2.0
4.0 4.0 2.0
5.0 4.0 2.0
6.0 4.0 2.0
7.0 4.0 2.0
8.0 4.0 2.0
9.0 4.0 2.0
10.0 4.0 2.0
0.0 5.0 2.0
1.0 5.0 2.0
2.0 5.0 2.0
3.0 5.0 2.0
4.0 5.0 2.0
5.0 5.0 2.0
6.0 5.0 2.0
7.0 5.0 2.0
8.0 5.0 2.0
9.0 5.0 2.0
10.0 5.0 2.0
0.0 6.0 2.0
1.0 6.0 2.0
2.0 6.0 2.0
3.0 6.0 2.0
4.0 6.0 2.0
5.0 6.0 2.0
6.0 6.0 2.0
7.0 6.0 2.0
8.0 6.0 2.0
9.0 6.0 2.0
10.0 6.0 2.0
0.0 7.0 2.0
1.0 7.0 2.0
2.0 7.0 2.0
3.0 7.0 2.0
4.0 7.0 2.0
5.0 7.0 2.0
6.0 7.0 2.0
7.0 7.0 2.0
8.0 7.0 2.0
9.0 7.0 2.0
10.0 7.0 2.0
0.0 8.0 2.0
1.0 8.0 2.0
2.0 8.0 2.0
3.0 8.0 2.0
4.0 8.0 2.0
5.0 8.0 2.0
6.0 8.0 2.0
7.0 8.0 2.0
8.0 8.0 2.0
9.0 8.0 2.0
10.0 8.0 2.0
0.0 9.0 2.0
1.0 9.0 2.0
2.0 9.0 2.0
3.0 9.0 2.0
4.0 9.0 2.0
5.0 9.0 2.0
6.0 9.0 2.0
7.0 9.0 2.0
8.0 9.0 2.0
9.0 9.0 2.0
10.0 9.0 2.0
0.0 10.0 2.0
1.0 10.0 2.0
2.0 10.0 2.0
3.0 10.0 2.0
4.0 10.0 2.0
5.0 10.0 2.0
6.0 10.0 2.0
7.0 10.0 2.0
8.0 10.0 2.0
9.0 10.0 2.0
10.0 10.0 2.0
0.0 0.0 3.0
1.0 0.0 3.0
2.0 0.0 3.0
3.0 0.0 3.0
4.0 0.0 3.0
5.0 0.0 3.0
6.0 0.0 3.0
7.0 0.0 3.0
8.0 0.0 3.0
9.0 0.0 3.0
10.0 0.0 3.0
0.0 1.0 3.0
1.0 1.0 3.0
2.0 1.0 3.0
3.0 1.0 3.0
4.0 1.0 3.0
5.0 1.0 3.0
6.0 1.0 3.0
7.0 1.0 3.0
8.0 1.0 3.0
9.0 1.0 3.0
10.0 1.0 3.0
0.0 2.0 3.0
1.0 2.0 3.0
2.0 2.0 3.0
3.0 2.0 3.0
4.0 2.0 3.0
5.0 2.0 3.0
6.0 2.0 3.0
7.0 2.0 3.0
8.0 2.0 3.0
9.0 2.0 3.0
10.0 2.0 3.0
0.0 3.0 3.0
1.0 3.0 3.0
2.0 3.0 3.0
3.0 3.0 3.0
4.0 3.0 3.0
5.0 3.0 3.0
6.0 3.0 3.0
7.0 3.0 3.0
8.0 3.0 3.0
9.0 3.0 3.0
10.0 3.0 3.0
0.0 4.0 3.0
1.0 4.0 3.0
2.0 4.0 3.0
3.0 4.0 3.0
4.0 4.0 3.0
5.0 4.0 3.0
6.0 4.0 3.0
7.0 4.0 3.0
8.0 4.0 3.0
9.0 4.0 3.0
10.0 4.0 3.0
0.0 5.0 3.0
1.0 5.0 3.0
2.0 5.0 3.0
3.0 5.0 3.0
4.0 5.0 3.0
5.0 5.0 3.0
6.0 5.0 3.0
7.0 5.0 3.0
8.0 5.0 3.0
9.0 5.0 3.0
10.0 5.0 3.0
0.0 6.0 3.0
1.0 6.0 3.0
2.0 6.0 3.0
3.0 6.0 3.0
4.0 6.0 3.0
5.0 6.0 3.0
6.0 6.0 3.0
7.0 6.0 3.0
8.0 6.0 3.0
9.0 6.0 3.0
10.0 6.0 3.0
0.0 7.0 3.0
1.0 7.0 3.0
2.0 7.0 3.0
3.0 7.0 3.0
4.0 7.0 3.0
5.0 7.0 3.0
6.0 7.0 3.0
7.0 7.0 3.0
8.0 7.0 3.0
9.0 7.0 3.0
10.0 7.0 3.0
0.0 8.0 3.0
1.0 8.0 3.0
2.0 8.0 3.0
3.0 8.0 3.0
4.0 8.0 3.0
5.0 8.0 3.0
6.0 8.0 3.0
7.0 8.0 3.0
8.0 8.0 3.0
9.0 8.0 3.0
10.0 8.0 3.0
0.0 9.0 3.0
1.0 9.0 3.0
2.0 9.0 3.0
3.0 9.0 3.0
4.0 9.0 3.0
5.0 9.0 3.0
6.0 9.0 3.0
7.0 9.0 3.0
8.0 9.0 3.0
9.0 9.0 3.0
10.0 9.0 3.0
0.0 10.0 3.0
1.0 10.0 3.0
2.0 10.0 3.0
3.0 10.0 3.0
4.0 10.0 3.0
5.0 10.0 3.0
6.0 10.0 3.0
7.0 10.0 3.0
8.0 10.0 3.0
9.0 10.0 3.0
10.0 10.0 3.0
0.0 0.0 4.0
1.0 0.0 4.0
2.0 0.0 4.0
3.0 0.0 4.0
4.0 0.0 4.0
5.0 0.0 4.0
6.0 0.0 4.0
7.0 0.0 4.0
8.0 0.0 4.0
9.0 0.0 4.0
10.0 0.0 4.0
0.0 1.0 4.0
1.0 1.0 4.0
2.0 1.0 4.0
3.0 1.0 4.0
4.0 1.0 4.0
5.0 1.0 4.0
6.0 1.0 4.0
7.0 1.0 4.0
8.0 1.0 4.0
9.0 1.0 4.0
10.0 1.0 4.0
0.0 2.0 4.0
1.0 2.0 4.0
2.0 2.0 4.0
3.0 2.0 4.0
4.0 2.0 4.0
5.0 2.0 4.0
6.0 2.0 4.0
7.0 2.0 4.0
8.0 2.0 4.0
9.0 2.0 4.0
10.0 2.0 4.0
0.0 3.0 4.0
1.0 3.0 4.0
2.0 3.0 4.0
3.0 3.0 4.0
4.0 3.0 4.0
5.0 3.0 4.0
6.0 3.0 4.0
7.0 3.0 4.0
8.0 3.0 4.0
9.0 3.0 4.0
10.0 3.0 4.0
0.0 4.0 4.0
1.0 4.0 4.0
2.0 4.0 4.0
3.0 4.0 4.0
4.0 4.0 4.0
5.0 4.0 4.0
6.0 4.0 4.0
7.0 4.0 4.0
8.0 4.0 4.0
9.0 4.0 4.0
10.0 4.0 4.0
0.0 5.0 4.0
1.0 5.0 4.0
2.0 5.0 4.0
3.0 5.0 4.0
4.0 5.0 4.0
5.0 5.0 4.0
6.0 5.0 4.0
7.0 5.0 4.0
8.0 5.0 4.0
9.0 5.0 4.0
10.0 5.0 4.0
0.0 6.0 4.0
1.0 6.0 4.0
2.0 6.0 4.0
3.0 6.0 4.0
4.0 6.0 4.0
5.0 6.0 4.0
6.0 6.0 4.0
7.0 6.0 4.0
8.0 6.0 4.0
9.0 6.0 4.0
10.0 6.0 4.0
0.0 7.0 4.0
1.0 7.0 4.0
2.0 7.0 4.0
3.0 7.0 4.0
4.0 7.0 4.0
5.0 7.0 4.0
6.0 7.0 4.0
7.0 7.0 4.0
8.0 7.0 4.0
9.0 7.0 4.0
10.0 7.0 4.0
0.0 8.0 4.0
1.0 8.0 4.0
2.0 8.0 4.0
3.0 8.0 4.0
4.0 8.0 4.0
5.0 8.0 4.0
6.0 8.0 4.0
7.0 8.0 4.0
8.0 8.0 4.0
9.0 8.0 4.0
10.0 8.0 4.0
0.0 9.0 4.0
1.0 9.0 4.0
2.0 9.0 4.0
3.0 9.0 4.0
4.0 9.0 4.0
5.0 9.0 4.0
6.0 9.0 4.0
7.0 9.0 4.0
8.0 9.0 4.0
9.0 9.0 4.0
10.0 9.0 4.0
0.0 10.0 4.0
1.0 10.0 4.0
2.0 10.0 4.0
3.0 10.0 4.0
4.0 10.0 4.0
5.0 10.0 4.0
6.0 10.0 4.0
7.0 10.0 4.0
8.0 10.0 4.0
9.0 10.0 4.0
10.0 10.0 4.0
0.0 0.0 5.0
1.0 0.0 5.0
2.0 0.0 5.0
3.0 0.0 5.0
4.0 0.0 5.0
5.0 0.0 5.0
6.0 0.0 5.0
7.0 0.0 5.0
8.0 0.0 5.0
9.0 0.0 5.0
10.0 0.0 5.0
0.0 1.0 5.0
1.0 1.0 5.0
2.0 1.0 5.0
3.0 1.0 5.0
4.0 1.0 5.0
5.0 1.0 5.0
6.0 1.0 5.0
7.0 1.0 5.0
8.0 1.0 5.0
9.0 1.0 5.0
10.0 1.0 5.0
0.0 2.0 5.0
1.0 2.0 5.0
2.0 2.0 5.0
3.0 2.0 5.0
4.0 2.0 5.0
5.0 2.0 5.0
6.0 2.0 5.0
7.0 2.0 5.0
8.0 2.0 5.0
9.0 2.0 5.0
10.0 2.0 5.0
0.0 3.0 5.0
1.0 3.0 5.0
2.0 3.0 5.0
3.0 3.0 5.0
4.0 3.0 5.0
5.0 3.0 5.0
6.0 3.0 5.0
7.0 3.0 5.0
8.0 3.0 5.0
9.0 3.0 5.0
10.0 3.0 5.0
0.0 4.0 5.0
1.0 4.0 5.0
2.0 4.0 5.0
3.0 4.0 5.0
4.0 4.0 5.0
5.0 4.0 5.0
6.0 4.0 5.0
7.0 4.0 5.0
8.0 4.0 5.0
9.0 4.0 5.0
10.0 4.0 5.0
0.0 5.0 5.0
1.0 5.0 5.0
2.0 5.0 5.0
3.0 5.0 5.0
4.0 5.0 5.0
5.0 5.0 5.0
6.0 5.0 5.0
7.0 5.0 5.0
8.0 5.0 5.0
9.0 5.0 5.0
10.0 5.0 5.0
0.0 6.0 5.0
1.0 6.0 5.0
2.0 6.0 5.0
3.0 6.0 5.0
4.0 6.0 5.0
5.0 6.0 5.0
6.0 6.0 5.0
7.0 6.0 5.0
8.0 6.0 5.0
9.0 6.0 5.0
10.0 6.0 5.0
0.0 7.0 5.0
1.0 7.0 5.0
2.0 7.0 5.0
3.0 7.0 5.0
4.0 7.0 5.0
5.0 7.0 5.0
6.0 7.0 5.0
7.0 7.0 5.0
8.0 7.0 5.0
9.0 7.0 5.0
10.0 7.0 5.0
0.0 8.0 5.0
1.0 8.0 5.0
2.0 8.0 5.0
3.0 8.0 5.0
4.0 8.0 5.0
5.0 8.0 5.0
6.0 8.0 5.0
7.0 8.0 5.0
8.0 8.0 5.0
9.0 8.0 5.0
10.0 8.0 5.0
0.0 9.0 5.0
1.0 9.0 5.0
2.0 9.0 5.0
3.0 9.0 5.0
4.0 9.0 5.0
5.0 9.0 5.0
6.0 9.0 5.0
7.0 9.0 5.0
8.0 9.0 5.0
9.0 9.0 5.0
10.0 9.0 5.0
0.0 10.0 5.0
1.0 10.0 5.0
2.0 10.0 5.0
3.0 10.0 5.0
4.0 10.0 5.0
5.0 10.0 5.0
6.0 10.0 5.0
7.0 10.0 5.0
8.0 10.0 5.0
9.0 10.0 5.0
10.0 10.0 5.0
0.0 0.0 6.0
1.0 0.0 6.0
2.0 0.0 6.0
3.0 0.0 6.0
4.0 0.0 6.0
5.0 0.0 6.0
6.0 0.0 6.0
7.0 0.0 6.0
8.0 0.0 6.0
9.0 0.0 6.0
10.0 0.0 6.0
0.0 1.0 6.0
1.0 1.0 6.0
2.0 1.0 6.0
3.0 1.0 6.0
4.0 1.0 6.0
5.0 1.0 6.0
6.0 1.0 6.0
7.0 1.0 6.0
8.0 1.0 6.0
9.0 1.0 6.0
10.0 1.0 6.0
0.0 2.0 6.0
1.0 2.0 6.0
2.0 2.0 6.0
3.0 2.0 6.0
4.0 2.0 6.0
5.0 2.0 6.0
6.0 2.0 6.0
7.0 2.0 6.0
8.0 2.0 6.0
9.0 2.0 6.0
10.0 2.0 6.0
0.0 3.0 6.0
1.0 3.0 6.0
2.0 3.0 6.0
3.0 3.0 6.0
4.0 3.0 6.0
5.0 3.0 6.0
6.0 3.0 6.0
7.0 3.0 6.0
8.0 3.0 6.0
9.0 3.0 6.0
10.0 3.0 6.0
0.0 4.0 6.0
1.0 4.0 6.0
2.0 4.0 6.0
3.0 4.0 6.0
4.0 4.0 6.0
5.0 4.0 6.0
6.0 4.0 6.0
7.0 4.0 6.0
8.0 4.0 6.0
9.0 4.0 6.0
10.0 4.0 6.0
0.0 5.0 6.0
1.0 5.0 6.0
2.0 5.0 6.0
3.0 5.0 6.0
4.0 5.0 6.0
5.0 5.0 6.0
6.0 5.0 6.0
7.0 5.0 6.0
8.0 5.0 6.0
9.0 5.0 6.0
10.0 5.0 6.0
0.0 6.0 6.0
1.0 6.0 6.0
2.0 6.0 6.0
3.0 6.0 6.0
4.0 6.0 6.0
5.0 6.0 6.0
6.0 6.0 6.0
7.0 6.0 6.0
8.0 6.0 6.0
9.0 6.0 6.0
10.0 6.0 6.0
0.0 7.0 6.0
1.0 7.0 6.0
2.0 7.0 6.0
3.0 7.0 6.0
4.0 7.0 6.0
5.0 7.0 6.0
6.0 7.0 6.0
7.0 7.0 6.0
8.0 7.0 6.0
9.0 7.0 6.0
[...]
POINT_DATA 1331
SCALARS P double 1
LOOKUP_TABLE default
6.0 6.0 6.0 6.0 6.0 6.0 6.0 6.0 6.0 6.0 6.0 5.80287589 5.80287593 5.80287603 5.80287615 5.80287624 5.80287628 5.80287624 5.80287615 5.80287603 5.80287593 5.80287589 5.60496704 5.60496713 5.60496737 5.60496764 5.60496786 5.60496795 5.60496786 5.60496764 5.60496737 5.60496713 5.60496704 5.4064824 5.40648257 5.40648301 5.40648352 5.40648393 5.40648408 5.40648393 5.40648352 5.40648301 5.40648257 5.4064824 5.20747156 5.20747187 5.20747265 5.20747355 5.20747424 5.20747449 5.20747424 5.20747355 5.20747265 5.20747187 5.20747156 5.00793566 5.00793622 5.00793757 5.00793906 5.00794016 5.00794056 5.00794016 5.00793906 5.00793757 5.00793622 5.00793566 4.80784778 4.80784878 4.80785103 4.80785337 4.80785503 4.80785562 4.80785503 4.80785337 4.80785103 4.80784878 4.80784778 4.60714898 4.60715077 4.60715431 4.60715768 4.60715993 4.6071607 4.60715993 4.60715768 4.60715431 4.60715077 4.60714898 4.40573608 4.40573909 4.40574401 4.40574814 4.40575066 4.40575149 4.40575066 4.40574814 4.40574401 4.40573909 4.40573608 4.20344207 4.2034459 4.20345073 4.20345417 4.20345606 4.20345665 4.20345606 4.20345417 4.20345073 4.2034459 4.20344207 4.0 4.0 4.0 4.0 4.0 4.0 4.0 4.0 4.0 4.0 4.0 6.0 6.0 6.0 6.0 6.0 6.0 6.0 6.0 6.0 6.0 6.0 5.79799215 5.79799221 5.79799235 5.79799252 5.79799266 5.79799271 5.79799266 5.79799252 5.79799235 5.79799221 5.79799215 5.59882192 5.59882205 5.59882241 5.59882282 5.59882314 5.59882326 5.59882314 5.59882282 5.59882241 5.59882205 5.59882192 5.4000385 5.4000388 5.40003953 5.40004037 5.40004101 5.40004124 5.40004101 5.40004037 5.40003953 5.4000388 5.4000385 5.20101874 5.20101937 5.20102086 5.2010225 5.20102369 5.20102412 5.20102369 5.2010225 5.20102086 5.20101937 5.20101874 5.0016396 5.00164104 5.00164414 5.00164728 5.00164945 5.00165021 5.00164945 5.00164728 5.00164414 5.00164104 5.0016396 4.80189587 4.80189949 4.80190609 4.80191202 4.80191579 4.80191705 4.80191579 4.80191202 4.80190609 4.80189949 4.80189587 4.60179934 4.60180946 4.60182378 4.60183455 4.60184062 4.60184253 4.60184062 4.60183455 4.60182378 4.60180946 4.60179934 4.40135977 4.40139047 4.40142049 4.40143808 4.40144646 4.4014489 4.40144646 4.40143808 4.40142049 4.40139047 4.40135977 4.20061866 4.20070222 4.20075236 4.20077338 4.20078138 4.20078345 4.20078138 4.20077338 4.20075236 4.20070222 4.20061866 4.0 4.0 4.0 4.0 4.0 4.0 4.0 4.0 4.0 4.0 4.0 6.0 6.0 6.0 6.0 6.0 6.0 6.0 6.0 6.0 6.0 6.0 5.79812194 5.79812198 5.79812207 5.79812219 5.79812228 5.79812231 5.79812228 5.79812219 5.79812207 5.79812198 5.79812194 5.59751791 5.597518 5.59751822 5.5975185 5.59751871 5.59751879 5.59751871 5.5975185 5.59751822 5.597518 5.59751791 5.39745402 5.3974542 5.39745466 5.39745519 5.39745559 5.39745574 5.39745559 5.39745519 5.39745466 5.3974542 5.39745402 5.19760452 5.19760488 5.19760575 5.19760673 5.19760746 5.19760773 5.19760746 5.19760673 5.19760575 5.19760488 5.19760452 4.99784939 4.99785014 4.99785181 4.99785359 4.99785485 4.9978553 4.99785485 4.99785359 4.99785181 4.99785014 4.99784939 4.79814814 4.79814977 4.79815303 4.79815616 4.79815824 4.79815896 4.79815824 4.79815616 4.79815303 4.79814977 4.79814814 4.59848734 4.59849123 4.59849758 4.59850283 4.598506 4.59850703 4.598506 4.59850283 4.59849758 4.59849123 4.59848734 4.39886312 4.39887286 4.39888464 4.39889253 4.39889666 4.39889791 4.39889666 4.39889253 4.39888464 4.39887286 4.39886312 4.19929611 4.1993171 4.19933419 4.19934286 4.19934659 4.19934763 4.19934659 4.19934286 4.19933419 4.1993171 4.19929611 4.0 4.0 4.0 4.0 4.0 4.0 4.0 4.0 4.0 4.0 4.0 6.0 6.0 6.0 6.0 6.0 6.0 6.0 6.0 6.0 6.0 6.0 5.7968458 5.79684582 5.79684587 5.79684593 5.79684598 5.796846 5.79684598 5.79684593 5.79684587 5.79684582 5.7968458 5.59481883 5.59481888 5.59481899 5.59481913 5.59481924 5.59481928 5.59481924 5.59481913 5.59481899 5.59481888 5.59481884 5.39361229 5.39361237 5.39361259 5.39361284 5.39361304 5.39361312 5.39361304 5.39361284 5.39361259 5.39361237 5.39361229 5.19302018 5.19302034 5.19302072 5.19302116 5.1930215 5.19302162 5.1930215 5.19302116 5.19302072 5.19302034 5.19302018 4.99292801 4.99292829 4.99292895 4.99292969 4.99293024 4.99293043 4.99293024 4.99292969 4.99292895 4.99292829 4.99292801 4.79328554 4.79328608 4.79328724 4.79328843 4.79328926 4.79328955 4.79328926 4.79328843 4.79328724 4.79328608 4.79328554 4.59409141 4.59409248 4.59409447 4.59409628 4.59409745 4.59409785 4.59409745 4.59409628 4.59409447 4.59409248 4.59409141 4.3953899 4.3953921 4.39539531 4.39539777 4.39539919 4.39539964 4.39539919 4.39539777 4.39539531 4.3953921 4.3953899 4.19728417 4.19728798 4.19729201 4.19729445 4.19729564 4.19729599 4.19729564 4.19729445 4.19729201 4.19728798 4.19728417 4.0 4.0 4.0 4.0 4.0 4.0 4.0 4.0 4.0 4.0 4.0 6.0 6.0 6.0 6.0 6.0 6.0 6.0 6.0 6.0 6.0 6.0 5.4804487 5.4804487 5.48044871 5.48044873 5.48044874 5.48044874 5.48044874 5.48044873 5.48044871 5.4804487 5.4804487 5.30497368 5.30497368 5.3049737 5.30497373 5.30497375 5.30497376 5.30497375 5.30497373 5.3049737 5.30497368 5.30497368 5.21301125 5.21301124 5.21301125 5.21301127 5.2130113 5.21301132 5.2130113 5.21301127 5.21301125 5.21301124 5.21301125 5.13277656 5.13277643 5.13277627 5.13277621 5.13277622 5.13277623 5.13277622 5.13277621 5.13277627 5.13277643 5.13277656 5.0536834 5.05368248 5.05368132 5.0536807 5.0536805 5.05368047 5.0536805 5.0536807 5.05368132 5.05368248 5.0536834 4.97463411 4.97462868 4.97462233 4.974619 4.97461781 4.97461755 4.97461781 4.974619 4.97462233 4.97462868 4.97463411 4.89427623 4.89424784 4.8942181 4.89420358 4.8941986 4.89419753 4.8941986 4.89420358 4.8942181 4.89424784 4.89427623 4.80119308 4.80106698 4.80095092 4.80089942 4.80088299 4.80087959 4.80088299 4.80089942 4.80095092 4.80106698 4.80119308 4.61743568 4.61703497 4.61671537 4.61658765 4.61655012 4.61654276 4.61655012 4.61658765 4.61671537 4.61703497 4.61743568 4.0 4.0 4.0 4.0 4.0 4.0 4.0 4.0 4.0 4.0 4.0 6.0 6.0 6.0 6.0 6.0 6.0 6.0 6.0 6.0 6.0 6.0 5.30203655 5.30203655 5.30203655 5.30203655 5.30203656 5.30203656 5.30203656 5.30203655 5.30203655 5.30203655 5.30203655 5.11974123 5.11974123 5.11974123 5.11974123 5.11974123 5.11974123 5.11974123 5.11974123 5.11974123 5.11974123 5.11974123 5.06807839 5.06807838 5.06807836 5.06807835 5.06807835 5.06807834 5.06807835 5.06807835 5.06807836 5.06807838 5.06807839 5.03712064 5.03712057 5.03712046 5.03712039 5.03712036 5.03712035 5.03712036 5.03712039 5.03712046 5.03712057 5.03712064 5.00882797 5.00882757 5.008827 5.00882664 5.00882648 5.00882645 5.00882648 5.00882664 5.008827 5.00882757 5.00882797 4.98073843 4.9807364 4.9807337 4.98073211 4.98073146 4.9807313 4.98073146 4.98073211 4.9807337 4.9807364 4.98073843 4.95021801 4.95020871 4.95019758 4.9501915 4.95018918 4.95018863 4.95018918 4.9501915 4.95019758 4.95020871 4.95021801 4.89876912 4.89873348 4.89869534 4.89867626 4.89866948 4.89866797 4.89866948 4.89867626 4.89869534 4.89873348 4.89876912 4.7151243 4.71502949 4.71493959 4.71489851 4.71488497 4.71488209 4.71488497 4.71489851 4.71493959 4.71502949 4.7151243 4.0 4.0 4.0 4.0 4.0 4.0 4.0 4.0 4.0 4.0 4.0 6.0 6.0 6.0 6.0 6.0 6.0 6.0 6.0 6.0 6.0 6.0 5.43790675 5.43790675 5.43790675 5.43790675 5.43790675 5.43790675 5.43790675 5.43790675 5.43790675 5.43790675 5.43790675 5.24861585 5.24861585 5.24861585 5.24861585 5.24861585 5.24861585 5.24861585 5.24861585 5.24861585 5.24861585 5.24861585 5.14724131 5.14724131 5.1472413 5.1472413 5.1472413 5.1472413 5.1472413 5.1472413 5.1472413 5.14724131 5.14724131 5.05899762 5.0589976 5.05899757 5.05899755 5.05899754 5.05899753 5.05899754 5.05899755 5.05899757 5.0589976 5.05899762 4.97275297 4.97275287 4.97275272 4.97275262 4.97275257 4.97275256 4.97275257 4.97275262 4.97275272 4.97275287 4.97275297 4.88726952 4.88726907 4.88726842 4.88726801 4.88726783 4.88726779 4.88726783 4.88726801 4.88726842 4.88726907 4.88726952 4.80101898 4.80101713 4.80101469 4.80101325 4.80101265 4.80101251 4.80101265 4.80101325 4.80101469 4.80101713 4.80101898 4.70230772 4.70230139 4.70229378 4.70228961 4.702288 4.70228762 4.702288 4.70228961 4.70229378 4.70230139 4.70230772 4.51882398 4.5188091 4.51879293 4.51878471 4.51878174 4.51878107 4.51878174 4.51878471 4.51879293 4.5188091 4.51882398 4.0 4.0 4.0 4.0 4.0 4.0 4.0 4.0 4.0 4.0 4.0 6.0 6.0 6.0 6.0 6.0 6.0 6.0 6.0 6.0 6.0 6.0 5.80475042 5.80475042 5.80475042 5.80475042 5.80475042 5.80475042 5.80475042 5.80475042 5.80475042 5.80475042 5.80475042 5.6084235 5.6084235 5.6084235 5.6084235 5.6084235 5.6084235 5.6084235 5.6084235 5.6084235 5.6084235 5.6084235 5.41093957 5.41093957 5.41093957 5.41093957 5.41093957 5.41093957 5.41093957 5.41093957 5.41093957 5.41093957 5.41093957 5.21230099 5.21230099 5.21230099 5.21230099 5.21230099 5.21230099 5.21230099 5.21230099 5.21230099 5.21230099 5.21230099 5.01256834 5.01256834 5.01256834 5.01256834 5.01256834 5.01256834 5.01256834 5.01256834 5.01256834 5.01256834 5.01256834 4.81182815 4.81182815 4.81182815 4.81182815 4.81182815 4.81182815 4.81182815 4.81182815 4.81182815 4.81182815 4.81182815 4.61016404 4.61016404 4.61016404 4.61016404 4.61016404 4.61016404 4.61016404 4.61016404 4.61016404 4.61016404 4.61016404 4.40763458 4.40763458 4.40763458 4.40763458 4.40763458 4.40763458 4.40763458 4.40763458 4.40763458 4.40763458 4.40763458 4.2042572 4.2042572 4.2042572 4.2042572 4.2042572 4.2042572 4.2042572 4.2042572 4.2042572 4.2042572 4.2042572 4.0 4.0 4.0 4.0 4.0 4.0 4.0 4.0 4.0 4.0 4.0 6.0 6.0 6.0 6.0 6.0 6.0 6.0 6.0 6.0 6.0 6.0 5.80528311 5.80528311 5.80528311 5.80528311 5.80528311 5.80528311 5.80528311 5.80528311 5.80528311 5.80528311 5.80528311 5.60910181 5.60910181 5.60910181 5.60910181 5.60910181 5.60910181 5.60910181 5.60910181 5.60910181 5.60910181 5.60910181 5.41128793 5.41128793 5.41128793 5.41128793 5.41128793 5.41128793 5.41128793 5.41128793 5.41128793 5.41128793 5.41128793 5.21200987 5.21200987 5.21200987 5.21200987 5.21200987 5.21200987 5.21200987 5.21200987 5.21200987 5.21200987 5.21200987 5.01155146 5.01155146 5.01155146 5.01155146 5.01155146 5.01155146 5.01155146 5.01155146 5.01155146 5.01155146 5.01155146 4.81019927 4.81019927 4.81019927 4.81019927 4.81019927 4.81019927 4.81019927 4.81019927 4.81019927 4.81019927 4.81019927 4.60819605 4.60819605 4.60819605 4.60819605 4.60819605 4.60819605 4.60819605 4.60819605 4.60819605 4.60819605 4.60819605 4.40573127 4.40573127 4.40573127 4.40573127 4.40573127 4.40573127 4.40573127 4.40573127 4.40573127 4.40573127 4.40573127 4.20295261 4.20295261 4.20295261 4.20295261 4.20295261 4.20295261 4.20295261 4.20295261 4.20295261 4.20295261 4.20295261 4.0 4.0 4.0 4.0 4.0 4.0 4.0 4.0 4.0 4.0 4.0 6.0 6.0 6.0 6.0 6.0 6.0 6.0 6.0 6.0 6.0 6.0 5.81056799 5.81056799 5.81056799 5.81056799 5.81056799 5.81056799 5.81056799 5.81056799 5.81056799 5.81056799 5.81056799 5.61536069 5.61536069 5.61536069 5.61536069 5.61536069 5.61536069 5.61536069 5.61536069 5.61536069 5.61536069 5.61536069 5.41653519 5.41653519 5.41653519 5.41653519 5.41653519 5.41653519 5.41653519 5.41653519 5.41653519 5.41653519 5.41653519 5.21557053 5.21557053 5.21557053 5.21557053 5.21557053 5.21557053 5.21557053 5.21557053 5.21557053 5.21557053 5.21557053 5.01344816 5.01344816 5.01344816 5.01344816 5.01344816 5.01344816 5.01344816 5.01344816 5.01344816 5.01344816 5.01344816 4.81078604 4.81078604 4.81078604 4.81078604 4.81078604 4.81078604 4.81078604 4.81078604 4.81078604 4.81078604 4.81078604 4.60795094 4.60795094 4.60795094 4.60795094 4.60795094 4.60795094 4.60795094 4.60795094 4.60795094 4.60795094 4.60795094 4.40515658 4.40515658 4.40515658 4.40515658 4.40515658 4.40515658 4.40515658 4.40515658 4.40515658 4.40515658 4.40515658 4.20250054 4.20250054 4.20250054 4.20250054 4.20250054 4.20250054 4.20250054 4.20250054 4.20250054 4.20250054 4.20250054 4.0 4.0 4.0 4.0 4.0 4.0 4.0 4.0 4.0 4.0 4.0 6.0 6.0 6.0 6.0 6.0 6.0 6.0 6.0 6.0 6.0 6.0 5.80145045 5.80145045 5.80145045 5.80145045 5.80145045 5.80145045 5.80145045 5.80145045 5.80145045 5.80145045 5.80145045 5.60300248 5.60300248 5.60300248 5.60300248 5.60300248 5.60300248 5.60300248 5.60300248 5.60300248 5.60300248 5.60300248 5.40372925 5.40372925 5.40372925 5.40372925 5.40372925 5.40372925 5.40372925 5.40372925 5.40372925 5.40372925 5.40372925 5.2035118 5.2035118 5.2035118 5.2035118 5.2035118 5.2035118 5.2035118 5.2035118 5.2035118 5.2035118 5.2035118 5.00258427 5.00258427 5.00258427 5.00258427 5.00258427 5.00258427 5.00258427 5.00258427 5.00258427 5.00258427 5.00258427 4.80130429 4.80130429 4.80130429 4.80130429 4.80130429 4.80130429 4.80130429 4.80130429 4.80130429 4.80130429 4.80130429 4.60005319 4.60005319 4.60005319 4.60005319 4.60005319 4.60005319 4.60005319 4.60005319 4.60005319 4.60005319 4.60005319 4.39914755 4.39914755 4.39914755 4.39914755 4.39914755 4.39914755 4.39914755 4.39914755 4.39914755 4.39914755 4.39914755 4.19896495 4.19896495 4.19896495 4.19896495 4.19896495 4.19896495 4.19896495 4.19896495 4.19896495 4.19896495 4.19896495 4.0 4.0 4.0 4.0 4.0 4.0 4.0 4.0 4.0 4.0 4.0
SCALARS diff_P double 1
LOOKUP_TABLE default