# vtk DataFile Version 2.0
PyFEHM VTK model output
ASCII
DATASET UNSTRUCTURED_GRID
POINTS 1331 double
0.0 0.0 0.0
1.0 0.0 0.0
2.0 0.0 0.0
3.0 0.0 0.0
4.0 0.0 0.0
5.0 0.0 0.0
6.0 0.0 0.0
7.0 0.0 0.0
8.0 0.0 0.0
9.0 0.0 0.0
10.0 0.0 0.0
0.0 1.0 0.0
1.0 1.0 0.0
2.0 1.0 0.0
3.0 1.0 0.0
4.0 1.0 0.0
5.0 1.0 0.0
6.0 1.0 0.0
7.0 1.0 0.0
8.0 1.0 0.0
9.0 1.0 0.0
10.0 1.0 0.0
0.0 2.0 0.0
1.0 2.0 0.0
2.0 2.0 0.0
3.0 2.0 0.0
4.0 2.0 0.0
5.0 2.0 0.0
6.0 2.0 0.0
7.0 2.0 0.0
8.0 2.0 0.0
9.0 2.0 0.0
10.0 2.0 0.0
0.0 3.0 0.0
1.0 3.0 0.0
2.0 3.0 0.0
3.0 3.0 0.0
4.0 3.0 0.0
5.0 3.0 0.0
6.0 3.0 0.0
7.0 3.0 0.0
8.0 3.0 0.0
9.0 3.0 0.0
10.0 3.0 0.0
0.0 4.0 0.0
1.0 4.0 0.0
2.0 4.0 0.0
3.0 4.0 0.0
4.0 4.0 0.0
5.0 4.0 0.0
6.0 4.0 0.0
7.0 4.0 0.0
8.0 4.0 0.0
9.0 4.0 0.0
10.0 4.0 0.0
0.0 5.0 0.0
1.0 5.0 0.0
2.0 5.0 0.0
3.0 5.0 0.0
4.0 5.0 0.0
5.0 5.0 0.0
6.0 5.0 0.0
7.0 5.0 0.0
8.0 5.0 0.0
9.0 5.0 0.0
10.0 5.0 0.0
0.0 6.0 0.0
1.0 6.0 0.0
2.0 6.0 0.0
3.0 6.0 0.0
4.0 6.0 0.0
5.0 6.0 0.0
6.0 6.0 0.0
7.0 6.0 0.0
8.0 6.0 0.0
9.0 6.0 0.0
10.0 6.0 0.0
0.0 7.0 0.0
1.0 7.0 0.0
2.0 7.0 0.0
3.0 7.0 0.0
4.0 7.0 0.0
5.0 7.0 0.0
6.0 7.0 0.0
7.0 7.0 0.0
8.0 7.0 0.0
9.0 7.0 0.0
10.0 7.0 0.0
0.0 8.0 0.0
1.0 8.0 0.0
2.0 8.0 0.0
3.0 8.0 0.0
4.0 8.0 0.0
5.0 8.0 0.0
6.0 8.0 0.0
7.0 8.0 0.0
8.0 8.0 0.0
9.0 8.0 0.0
10.0 8.0 0.0
0.0 9.0 0.0
1.0 9.0 0.0
2.0 9.0 0.0
3.0 9.0 0.0
4.0 9.0 0.0
5.0 9.0 0.0
6.0 9.0 0.0
7.0 9.0 0.0
8.0 9.0 0.0
9.0 9.0 0.0
10.0 9.0 0.0
0.0 10.0 0.0
1.0 10.0 0.0
2.0 10.0 0.0
3.0 10.0 0.0
4.0 10.0 0.0
5.0 10.0 0.0
6.0 10.0 0.0
7.0 10.0 0.0
8.0 10.0 0.0
9.0 10.0 0.0
10.0 10.0 0.0
0.0 0.0 1.0
1.0 0.0 1.0
2.0 0.0 1.0
3.0 0.0 1.0
4.0 0.0 1.0
5.0 0.0 1.0
6.0 0.0 1.0
7.0 0.0 1.0
8.0 0.0 1.0
9.0 0.0 1.0
10.0 0.0 1.0
0.0 1.0 1.0
1.0 1.0 1.0
2.0 1.0 1.0
3.0 1.0 1.0
4.0 1.0 1.0
5.0 1.0 1.0
6.0 1.0 1.0
7.0 1.0 1.0
8.0 1.0 1.0
9.0 1.0 1.0
10.0 1.0 1.0
0.0 2.0 1.0
1.0 2.0 1.0
2.0 2.0 1.0
3.0 2.0 1.0
4.0 2.0 1.0
5.0 2.0 1.0
6.0 2.0 1.0
7.0 2.0 1.0
8.0 2.0 1.0
9.0 2.0 1.0
10.0 2.0 1.0
0.0 3.0 1.0
1.0 3.0 1.0
2.0 3.0 1.0
3.0 3.0 1.0
4.0 3.0 1.0
5.0 3.0 1.0
6.0 3.0 1.0
7.0 3.0 1.0
8.0 3.0 1.0
9.0 3.0 1.0
10.0 3.0 1.0
0.0 4.0 1.0
1.0 4.0 1.0
2.0 4.0 1.0
3.0 4.0 1.0
4.0 4.0 1.0
5.0 4.0 1.0
6.0 4.0 1.0
7.0 4.0 1.0
8.0 4.0 1.0
9.0 4.0 1.0
10.0 4.0 1.0
0.0 5.0 1.0
1.0 5.0 1.0
2.0 5.0 1.0
3.0 5.0 1.0
4.0 5.0 1.0
5.0 5.0 1.0
6.0 5.0 1.0
7.0 5.0 1.0
8.0 5.0 1.0
9.0 5.0 1.0
10.0 5.0 1.0
0.0 6.0 1.0
1.0 6.0 1.0
2.0 6.0 1.0
3.0 6.0 1.0
4.0 6.0 1.0
5.0 6.0 1.0
6.0 6.0 1.0
7.0 6.0 1.0
8.0 6.0 1.0
9.0 6.0 1.0
10.0 6.0 1.0
0.0 7.0 1.0
1.0 7.0 1.0
2.0 7.0 1.0
3.0 7.0 1.0
4.0 7.0 1.0
5.0 7.0 1.0
6.0 7.0 1.0
7.0 7.0 1.0
8.0 7.0 1.0
9.0 7.0 1.0
10.0 7.0 1.0
0.0 8.0 1.0
1.0 8.0 1.0
2.0 8.0 1.0
3.0 8.0 1.0
4.0 8.0 1.0
5.0 8.0 1.0
6.0 8.0 1.0
7.0 8.0 1.0
8.0 8.0 1.0
9.0 8.0 1.0
10.0 8.0 1.0
0.0 9.0 1.0
1.0 9.0 1.0
2.0 9.0 1.0
3.0 9.0 1.0
4.0 9.0 1.0
5.0 9.0 1.0
6.0 9.0 1.0
7.0 9.0 1.0
8.0 9.0 1.0
9.0 9.0 1.0
10.0 9.0 1.0
0.0 10.0 1.0
1.0 10.0 1.0
2.0 10.0 1.0
3.0 10.0 1.0
4.0 10.0 1.0
5.0 10.0 1.0
6.0 10.0 1.0
7.0 10.0 1.0
8.0 10.0 1.0
9.0 10.0 1.0
10.0 10.0 1.0
0.0 0.0 2.0
1.0 0.0 2.0
2.0 0.0 2.0
3.0 0.0 2.0
4.0 0.0 2.0
5.0 0.0 2.0
6.0 0.0 2.0
7.0 0.0 2.0
8.0 0.0 2.0
9.0 0.0 2.0
10.0 0.0 2.0
0.0 1.0 2.0
1.0 1.0 2.0
2.0 1.0 2.0
3.0 1.0 2.0
4.0 1.0 2.0
5.0 1.0 2.0
6.0 1.0 2.0
7.0 1.0 2.0
8.0 1.0 2.0
9.0 1.0 2.0
10.0 1.0 2.0
0.0 2.0 2.0
1.0 2.0 2.0
2.0 2.0 2.0
3.0 2.0 2.0
4.0 2.0 2.0
5.0 2.0 2.0
6.0 2.0 2.0
7.0 2.0 2.0
8.0 2.0 2.0
9.0 2.0 2.0
10.0 2.0 2.0
0.0 3.0 2.0
1.0 3.0 2.0
2.0 3.0 2.0
3.0 3.0 2.0
4.0 3.0 2.0
5.0 3.0 2.0
6.0 3.0 2.0
7.0 3.0 2.0
8.0 3.0 2.0
9.0 3.0 2.0
10.0 3.0 2.0
0.0 4.0 2.0
1.0 4.0 2.0
2.0 4.0 2.0
3.0 4.0 2.0
4.0 4.0 2.0
5.0 4.0 2.0
6.0 4.0 2.0
7.0 4.0 2.0
8.0 4.0 2.0
9.0 4.0 2.0
10.0 4.0 2.0
0.0 5.0 2.0
1.0 5.0 2.0
2.0 5.0 2.0
3.0 5.0 2.0
4.0 5.0 2.0
5.0 5.0 2.0
6.0 5.0 2.0
7.0 5.0 2.0
8.0 5.0 2.0
9.0 5.0 2.0
10.0 5.0 2.0
0.0 6.0 2.0
1.0 6.0 2.0
2.0 6.0 2.0
3.0 6.0 2.0
4.0 6.0 2.0
5.0 6.0 2.0
6.0 6.0 2.0
7.0 6.0 2.0
8.0 6.0 2.0
9.0 6.0 2.0
10.0 6.0 2.0
0.0 7.0 2.0
1.0 7.0 2.0
2.0 7.0 2.0
3.0 7.0 2.0
4.0 7.0 2.0
5.0 7.0 2.0
6.0 7.0 2.0
7.0 7.0 2.0
8.0 7.0 2.0
9.0 7.0 2.0
10.0 7.0 2.0
0.0 8.0 2.0
1.0 8.0 2.0
2.0 8.0 2.0
3.0 8.0 2.0
4.0 8.0 2.0
5.0 8.0 2.0
6.0 8.0 2.0
7.0 8.0 2.0
8.0 8.0 2.0
9.0 8.0 2.0
10.0 8.0 2.0
0.0 9.0 2.0
1.0 9.0 2.0
2.0 9.0 2.0
3.0 9.0 2.0
4.0 9.0 2.0
5.0 9.0 2.0
6.0 9.0 2.0
7.0 9.0 2.0
8.0 9.0 2.0
9.0 9.0 2.0
10.0 9.0 2.0
0.0 10.0 2.0
1.0 10.0 2.0
2.0 10.0 2.0
3.0 10.0 2.0
4.0 10.0 2.0
5.0 10.0 2.0
6.0 10.0 2.0
7.0 10.0 2.0
8.0 10.0 2.0
9.0 10.0 2.0
10.0 10.0 2.0
0.0 0.0 3.0
1.0 0.0 3.0
2.0 0.0 3.0
3.0 0.0 3.0
4.0 0.0 3.0
5.0 0.0 3.0
6.0 0.0 3.0
7.0 0.0 3.0
8.0 0.0 3.0
9.0 0.0 3.0
10.0 0.0 3.0
0.0 1.0 3.0
1.0 1.0 3.0
2.0 1.0 3.0
3.0 1.0 3.0
4.0 1.0 3.0
5.0 1.0 3.0
6.0 1.0 3.0
7.0 1.0 3.0
8.0 1.0 3.0
9.0 1.0 3.0
10.0 1.0 3.0
0.0 2.0 3.0
1.0 2.0 3.0
2.0 2.0 3.0
3.0 2.0 3.0
4.0 2.0 3.0
5.0 2.0 3.0
6.0 2.0 3.0
7.0 2.0 3.0
8.0 2.0 3.0
9.0 2.0 3.0
10.0 2.0 3.0
0.0 3.0 3.0
1.0 3.0 3.0
2.0 3.0 3.0
3.0 3.0 3.0
4.0 3.0 3.0
5.0 3.0 3.0
6.0 3.0 3.0
7.0 3.0 3.0
8.0 3.0 3.0
9.0 3.0 3.0
10.0 3.0 3.0
0.0 4.0 3.0
1.0 4.0 3.0
2.0 4.0 3.0
3.0 4.0 3.0
4.0 4.0 3.0
5.0 4.0 3.0
6.0 4.0 3.0
7.0 4.0 3.0
8.0 4.0 3.0
9.0 4.0 3.0
10.0 4.0 3.0
0.0 5.0 3.0
1.0 5.0 3.0
2.0 5.0 3.0
3.0 5.0 3.0
4.0 5.0 3.0
5.0 5.0 3.0
6.0 5.0 3.0
7.0 5.0 3.0
8.0 5.0 3.0
9.0 5.0 3.0
10.0 5.0 3.0
0.0 6.0 3.0
1.0 6.0 3.0
2.0 6.0 3.0
3.0 6.0 3.0
4.0 6.0 3.0
5.0 6.0 3.0
6.0 6.0 3.0
7.0 6.0 3.0
8.0 6.0 3.0
9.0 6.0 3.0
10.0 6.0 3.0
0.0 7.0 3.0
1.0 7.0 3.0
2.0 7.0 3.0
3.0 7.0 3.0
4.0 7.0 3.0
5.0 7.0 3.0
6.0 7.0 3.0
7.0 7.0 3.0
8.0 7.0 3.0
9.0 7.0 3.0
10.0 7.0 3.0
0.0 8.0 3.0
1.0 8.0 3.0
2.0 8.0 3.0
3.0 8.0 3.0
4.0 8.0 3.0
5.0 8.0 3.0
6.0 8.0 3.0
7.0 8.0 3.0
8.0 8.0 3.0
9.0 8.0 3.0
10.0 8.0 3.0
0.0 9.0 3.0
1.0 9.0 3.0
2.0 9.0 3.0
3.0 9.0 3.0
4.0 9.0 3.0
5.0 9.0 3.0
6.0 9.0 3.0
7.0 9.0 3.0
8.0 9.0 3.0
9.0 9.0 3.0
10.0 9.0 3.0
0.0 10.0 3.0
1.0 10.0 3.0
2.0 10.0 3.0
3.0 10.0 3.0
4.0 10.0 3.0
5.0 10.0 3.0
6.0 10.0 3.0
7.0 10.0 3.0
8.0 10.0 3.0
9.0 10.0 3.0
10.0 10.0 3.0
0.0 0.0 4.0
1.0 0.0 4.0
2.0 0.0 4.0
3.0 0.0 4.0
4.0 0.0 4.0
5.0 0.0 4.0
6.0 0.0 4.0
7.0 0.0 4.0
8.0 0.0 4.0
9.0 0.0 4.0
10.0 0.0 4.0
0.0 1.0 4.0
1.0 1.0 4.0
2.0 1.0 4.0
3.0 1.0 4.0
4.0 1.0 4.0
5.0 1.0 4.0
6.0 1.0 4.0
7.0 1.0 4.0
8.0 1.0 4.0
9.0 1.0 4.0
10.0 1.0 4.0
0.0 2.0 4.0
1.0 2.0 4.0
2.0 2.0 4.0
3.0 2.0 4.0
4.0 2.0 4.0
5.0 2.0 4.0
6.0 2.0 4.0
7.0 2.0 4.0
8.0 2.0 4.0
9.0 2.0 4.0
10.0 2.0 4.0
0.0 3.0 4.0
1.0 3.0 4.0
2.0 3.0 4.0
3.0 3.0 4.0
4.0 3.0 4.0
5.0 3.0 4.0
6.0 3.0 4.0
7.0 3.0 4.0
8.0 3.0 4.0
9.0 3.0 4.0
10.0 3.0 4.0
0.0 4.0 4.0
1.0 4.0 4.0
2.0 4.0 4.0
3.0 4.0 4.0
4.0 4.0 4.0
5.0 4.0 4.0
6.0 4.0 4.0
7.0 4.0 4.0
8.0 4.0 4.0
9.0 4.0 4.0
10.0 4.0 4.0
0.0 5.0 4.0
1.0 5.0 4.0
2.0 5.0 4.0
3.0 5.0 4.0
4.0 5.0 4.0
5.0 5.0 4.0
6.0 5.0 4.0
7.0 5.0 4.0
8.0 5.0 4.0
9.0 5.0 4.0
10.0 5.0 4.0
0.0 6.0 4.0
1.0 6.0 4.0
2.0 6.0 4.0
3.0 6.0 4.0
4.0 6.0 4.0
5.0 6.0 4.0
6.0 6.0 4.0
7.0 6.0 4.0
8.0 6.0 4.0
9.0 6.0 4.0
10.0 6.0 4.0
0.0 7.0 4.0
1.0 7.0 4.0
2.0 7.0 4.0
3.0 7.0 4.0
4.0 7.0 4.0
5.0 7.0 4.0
6.0 7.0 4.0
7.0 7.0 4.0
8.0 7.0 4.0
9.0 7.0 4.0
10.0 7.0 4.0
0.0 8.0 4.0
1.0 8.0 4.0
2.0 8.0 4.0
3.0 8.0 4.0
4.0 8.0 4.0
5.0 8.0 4.0
6.0 8.0 4.0
7.0 8.0 4.0
8.0 8.0 4.0
9.0 8.0 4.0
10.0 8.0 4.0
0.0 9.0 4.0
1.0 9.0 4.0
2.0 9.0 4.0
3.0 9.0 4.0
4.0 9.0 4.0
5.0 9.0 4.0
6.0 9.0 4.0
7.0 9.0 4.0
8.0 9.0 4.0
9.0 9.0 4.0
10.0 9.0 4.0
0.0 10.0 4.0
1.0 10.0 4.0
2.0 10.0 4.0
3.0 10.0 4.0
4.0 10.0 4.0
5.0 10.0 4.0
6.0 10.0 4.0
7.0 10.0 4.0
8.0 10.0 4.0
9.0 10.0 4.0
10.0 10.0 4.0
0.0 0.0 5.0
1.0 0.0 5.0
2.0 0.0 5.0
3.0 0.0 5.0
4.0 0.0 5.0
5.0 0.0 5.0
6.0 0.0 5.0
7.0 0.0 5.0
8.0 0.0 5.0
9.0 0.0 5.0
10.0 0.0 5.0
0.0 1.0 5.0
1.0 1.0 5.0
2.0 1.0 5.0
3.0 1.0 5.0
4.0 1.0 5.0
5.0 1.0 5.0
6.0 1.0 5.0
7.0 1.0 5.0
8.0 1.0 5.0
9.0 1.0 5.0
10.0 1.0 5.0
0.0 2.0 5.0
1.0 2.0 5.0
2.0 2.0 5.0
3.0 2.0 5.0
4.0 2.0 5.0
5.0 2.0 5.0
6.0 2.0 5.0
7.0 2.0 5.0
8.0 2.0 5.0
9.0 2.0 5.0
10.0 2.0 5.0
0.0 3.0 5.0
1.0 3.0 5.0
2.0 3.0 5.0
3.0 3.0 5.0
4.0 3.0 5.0
5.0 3.0 5.0
6.0 3.0 5.0
7.0 3.0 5.0
8.0 3.0 5.0
9.0 3.0 5.0
10.0 3.0 5.0
0.0 4.0 5.0
1.0 4.0 5.0
2.0 4.0 5.0
3.0 4.0 5.0
4.0 4.0 5.0
5.0 4.0 5.0
6.0 4.0 5.0
7.0 4.0 5.0
8.0 4.0 5.0
9.0 4.0 5.0
10.0 4.0 5.0
0.0 5.0 5.0
1.0 5.0 5.0
2.0 5.0 5.0
3.0 5.0 5.0
4.0 5.0 5.0
5.0 5.0 5.0
6.0 5.0 5.0
7.0 5.0 5.0
8.0 5.0 5.0
9.0 5.0 5.0
10.0 5.0 5.0
0.0 6.0 5.0
1.0 6.0 5.0
2.0 6.0 5.0
3.0 6.0 5.0
4.0 6.0 5.0
5.0 6.0 5.0
6.0 6.0 5.0
7.0 6.0 5.0
8.0 6.0 5.0
9.0 6.0 5.0
10.0 6.0 5.0
0.0 7.0 5.0
1.0 7.0 5.0
2.0 7.0 5.0
3.0 7.0 5.0
4.0 7.0 5.0
5.0 7.0 5.0
6.0 7.0 5.0
7.0 7.0 5.0
8.0 7.0 5.0
9.0 7.0 5.0
10.0 7.0 5.0
0.0 8.0 5.0
1.0 8.0 5.0
2.0 8.0 5.0
3.0 8.0 5.0
4.0 8.0 5.0
5.0 8.0 5.0
6.0 8.0 5.0
7.0 8.0 5.0
8.0 8.0 5.0
9.0 8.0 5.0
10.0 8.0 5.0
0.0 9.0 5.0
1.0 9.0 5.0
2.0 9.0 5.0
3.0 9.0 5.0
4.0 9.0 5.0
5.0 9.0 5.0
6.0 9.0 5.0
7.0 9.0 5.0
8.0 9.0 5.0
9.0 9.0 5.0
10.0 9.0 5.0
0.0 10.0 5.0
1.0 10.0 5.0
2.0 10.0 5.0
3.0 10.0 5.0
4.0 10.0 5.0
5.0 10.0 5.0
6.0 10.0 5.0
7.0 10.0 5.0
8.0 10.0 5.0
9.0 10.0 5.0
10.0 10.0 5.0
0.0 0.0 6.0
1.0 0.0 6.0
2.0 0.0 6.0
3.0 0.0 6.0
4.0 0.0 6.0
5.0 0.0 6.0
6.0 0.0 6.0
7.0 0.0 6.0
8.0 0.0 6.0
9.0 0.0 6.0
10.0 0.0 6.0
0.0 1.0 6.0
1.0 1.0 6.0
2.0 1.0 6.0
3.0 1.0 6.0
4.0 1.0 6.0
5.0 1.0 6.0
6.0 1.0 6.0
7.0 1.0 6.0
8.0 1.0 6.0
9.0 1.0 6.0
10.0 1.0 6.0
0.0 2.0 6.0
1.0 2.0 6.0
2.0 2.0 6.0
3.0 2.0 6.0
4.0 2.0 6.0
5.0 2.0 6.0
6.0 2.0 6.0
7.0 2.0 6.0
8.0 2.0 6.0
9.0 2.0 6.0
10.0 2.0 6.0
0.0 3.0 6.0
1.0 3.0 6.0
2.0 3.0 6.0
3.0 3.0 6.0
4.0 3.0 6.0
5.0 3.0 6.0
6.0 3.0 6.0
7.0 3.0 6.0
8.0 3.0 6.0
9.0 3.0 6.0
10.0 3.0 6.0
0.0 4.0 6.0
1.0 4.0 6.0
2.0 4.0 6.0
3.0 4.0 6.0
4.0 4.0 6.0
5.0 4.0 6.0
6.0 4.0 6.0
7.0 4.0 6.0
8.0 4.0 6.0
9.0 4.0 6.0
10.0 4.0 6.0
0.0 5.0 6.0
1.0 5.0 6.0
2.0 5.0 6.0
3.0 5.0 6.0
4.0 5.0 6.0
5.0 5.0 6.0
6.0 5.0 6.0
7.0 5.0 6.0
8.0 5.0 6.0
9.0 5.0 6.0
10.0 5.0 6.0
0.0 6.0 6.0
1.0 6.0 6.0
2.0 6.0 6.0
3.0 6.0 6.0
4.0 6.0 6.0
5.0 6.0 6.0
6.0 6.0 6.0
7.0 6.0 6.0
8.0 6.0 6.0
9.0 6.0 6.0
10.0 6.0 6.0
0.0 7.0 6.0
1.0 7.0 6.0
2.0 7.0 6.0
3.0 7.0 6.0
4.0 7.0 6.0
5.0 7.0 6.0
6.0 7.0 6.0
7.0 7.0 6.0
8.0 7.0 6.0
9.0 7.0 6.0
[...]
POINT_DATA 1331
SCALARS P double 1
LOOKUP_TABLE default
6.0 6.0 6.0 6.0 6.0 6.0 6.0 6.0 6.0 6.0 6.0 5.79926742 5.79926792 5.79926922 5.7992708 5.79927206 5.79927254 5.79927206 5.7992708 5.79926922 5.79926792 5.79926742 5.59854946 5.59855061 5.59855358 5.59855717 5.59856002 5.59856109 5.59856002 5.59855717 5.59855358 5.59855061 5.59854946 5.39835766 5.3983598 5.39836526 5.39837179 5.39837691 5.39837883 5.39837691 5.39837179 5.39836526 5.3983598 5.39835766 5.19869128 5.19869499 5.19870434 5.19871532 5.1987238 5.19872696 5.1987238 5.19871532 5.19870434 5.19869499 5.19869128 4.99937868 4.99938495 4.9994003 4.99941778 4.99943099 4.99943584 4.99943099 4.99941778 4.9994003 4.99938495 4.99937868 4.80020128 4.80021156 4.80023553 4.80026163 4.80028068 4.80028755 4.80028068 4.80026163 4.80023553 4.80021156 4.80020128 4.60093413 4.60095054 4.6009857 4.60102143 4.60104625 4.60105498 4.60104625 4.60102143 4.6009857 4.60095054 4.60093413 4.40134642 4.4013705 4.40141536 4.40145668 4.40148358 4.40149274 4.40148358 4.40145668 4.40141536 4.4013705 4.40134642 4.2011653 4.20119161 4.20123147 4.20126382 4.2012833 4.2012897 4.2012833 4.20126382 4.20123147 4.20119161 4.2011653 4.0 4.0 4.0 4.0 4.0 4.0 4.0 4.0 4.0 4.0 4.0 6.0 6.0 6.0 6.0 6.0 6.0 6.0 6.0 6.0 6.0 6.0 5.78963514 5.78963594 5.78963798 5.78964044 5.78964239 5.78964312 5.78964239 5.78964044 5.78963798 5.78963594 5.78963514 5.58635758 5.58635949 5.58636434 5.58637013 5.58637466 5.58637635 5.58637466 5.58637013 5.58636434 5.58635949 5.58635758 5.38616226 5.38616614 5.38617585 5.38618718 5.38619589 5.38619912 5.38619589 5.38618718 5.38617585 5.38616614 5.38616226 5.18733962 5.18734743 5.18736632 5.18738756 5.18740343 5.18740922 5.18740343 5.18738756 5.18736632 5.18734743 5.18733962 4.98909541 4.98911168 4.98914857 4.98918768 4.98921561 4.98922558 4.98921561 4.98918768 4.98914857 4.98911168 4.98909541 4.79103373 4.7910696 4.79114226 4.79121255 4.79125957 4.79127578 4.79125957 4.79121255 4.79114226 4.7910696 4.79103373 4.59294512 4.5930295 4.59317112 4.59329078 4.59336367 4.59338762 4.59336367 4.59329078 4.59317112 4.5930295 4.59294512 4.3947363 4.39494173 4.39519984 4.39537988 4.39547634 4.39550602 4.39547634 4.39537988 4.39519984 4.39494173 4.3947363 4.19656637 4.19700222 4.19736387 4.19755802 4.19764586 4.19767071 4.19764586 4.19755802 4.19736387 4.19700222 4.19656637 4.0 4.0 4.0 4.0 4.0 4.0 4.0 4.0 4.0 4.0 4.0 6.0 6.0 6.0 6.0 6.0 6.0 6.0 6.0 6.0 6.0 6.0 5.78923277 5.78923368 5.78923604 5.78923888 5.78924113 5.78924198 5.78924113 5.78923888 5.78923604 5.78923368 5.78923277 5.58376465 5.58376686 5.5837725 5.58377924 5.58378452 5.5837865 5.58378452 5.58377924 5.5837725 5.58376686 5.58376465 5.38180725 5.38181175 5.38182306 5.38183628 5.38184647 5.38185026 5.38184647 5.38183628 5.38182306 5.38181175 5.38180725 5.18200208 5.18201108 5.18203297 5.18205773 5.1820763 5.1820831 5.1820763 5.18205773 5.18203297 5.18201108 5.18200208 4.98345541 4.98347379 4.98351606 4.98356136 4.98359397 4.98360564 4.98359397 4.98356136 4.98351606 4.98347379 4.98345541 4.78561874 4.78565794 4.78573947 4.7858199 4.78587443 4.78589335 4.78587443 4.7858199 4.78573947 4.78565794 4.78561874 4.5881831 4.58827082 4.58842508 4.58855973 4.58864356 4.5886714 4.58864356 4.58855973 4.58842508 4.58827082 4.5881831 4.39104124 4.39124104 4.39151092 4.39170893 4.39181868 4.39185304 4.39181868 4.39170893 4.39151092 4.39124104 4.39104124 4.19444442 4.19483656 4.19519562 4.1954031 4.19550191 4.19553061 4.19550191 4.1954031 4.19519562 4.19483656 4.19444442 4.0 4.0 4.0 4.0 4.0 4.0 4.0 4.0 4.0 4.0 4.0 6.0 6.0 6.0 6.0 6.0 6.0 6.0 6.0 6.0 6.0 6.0 5.78964594 5.78964673 5.78964877 5.78965124 5.7896532 5.78965394 5.7896532 5.78965124 5.78964877 5.78964673 5.78964594 5.5831087 5.58311058 5.58311539 5.58312118 5.58312574 5.58312746 5.58312574 5.58312118 5.58311539 5.58311058 5.5831087 5.37971057 5.37971427 5.37972364 5.37973473 5.37974336 5.37974658 5.37974336 5.37973473 5.37972364 5.37971427 5.37971057 5.17867081 5.17867782 5.17869523 5.17871531 5.1787306 5.17873625 5.1787306 5.17871531 5.17869523 5.17867782 5.17867081 4.97931323 4.97932657 4.97935836 4.97939358 4.97941956 4.97942899 4.97941956 4.97939358 4.97935836 4.97932657 4.97931323 4.78114506 4.78117073 4.78122785 4.78128731 4.78132917 4.78134398 4.78132917 4.78128731 4.78122785 4.78117073 4.78114506 4.58387564 4.58392546 4.58402433 4.58411823 4.58418012 4.58420128 4.58418012 4.58411823 4.58402433 4.58392546 4.58387564 4.38745636 4.38755014 4.38770531 4.38783485 4.38791297 4.38793847 4.38791297 4.38783485 4.38770531 4.38755014 4.38745636 4.19228379 4.19242761 4.19260954 4.1927373 4.19280603 4.19282721 4.19280603 4.1927373 4.19260954 4.19242761 4.19228379 4.0 4.0 4.0 4.0 4.0 4.0 4.0 4.0 4.0 4.0 4.0 6.0 6.0 6.0 6.0 6.0 6.0 6.0 6.0 6.0 6.0 6.0 6.11077739 6.11077462 6.11076788 6.11076041 6.11075496 6.11075301 6.11075496 6.11076041 6.11076788 6.11077462 6.11077739 6.05043597 6.05042598 6.05040189 6.05037546 6.05035636 6.05034954 6.05035636 6.05037546 6.05040189 6.05042598 6.05043597 5.94824026 5.94820796 5.94813152 5.9480494 5.94799111 5.94797052 5.94799111 5.9480494 5.94813152 5.94820796 5.94824026 5.82413969 5.82404128 5.82381467 5.82357845 5.82341497 5.82335806 5.82341497 5.82357845 5.82381467 5.82404128 5.82413969 5.68152866 5.68124316 5.68061039 5.67997614 5.67955115 5.67940592 5.67955115 5.67997614 5.68061039 5.68124316 5.68152866 5.52618373 5.52539813 5.52374615 5.52216974 5.52115422 5.52081484 5.52115422 5.52216974 5.52374615 5.52539813 5.52618373 5.36477494 5.36276396 5.35882656 5.35528818 5.35311186 5.35240311 5.35311186 5.35528818 5.35882656 5.36276396 5.36477494 5.18791413 5.18336376 5.17526756 5.16849419 5.16454093 5.16328986 5.16454093 5.16849419 5.17526756 5.18336376 5.18791413 4.89720474 4.88952946 4.87747358 4.86817691 4.86304446 4.86146723 4.86304446 4.86817691 4.87747358 4.88952946 4.89720474 4.0 4.0 4.0 4.0 4.0 4.0 4.0 4.0 4.0 4.0 4.0 6.0 6.0 6.0 6.0 6.0 6.0 6.0 6.0 6.0 6.0 6.0 6.11555165 6.11554735 6.11553671 6.11552461 6.11551558 6.11551229 6.11551558 6.11552461 6.11553671 6.11554735 6.11555165 6.06095525 6.06094117 6.06090668 6.06086802 6.06083952 6.06082923 6.06083952 6.06086802 6.06090668 6.06094117 6.06095525 5.96079832 5.96075635 5.96065522 5.96054417 5.96046377 5.96043504 5.96046377 5.96054417 5.96065522 5.96075635 5.96079832 5.83672564 5.83660674 5.83632643 5.83602654 5.83581434 5.83573952 5.83581434 5.83602654 5.83632643 5.83660674 5.83672564 5.69099012 5.69067066 5.68993886 5.68918074 5.68865884 5.68847772 5.68865884 5.68918074 5.68993886 5.69067066 5.69099012 5.52797168 5.52716855 5.52539684 5.52363114 5.52245415 5.52205319 5.52245415 5.52363114 5.52539684 5.52716855 5.52797168 5.35077862 5.34894232 5.34508497 5.3414126 5.33905294 5.33826568 5.33905294 5.3414126 5.34508497 5.34894232 5.35077862 5.14067549 5.13708914 5.13001198 5.1236168 5.11966879 5.11838063 5.11966879 5.1236168 5.13001198 5.13708914 5.14067549 4.79839969 4.79344316 4.78439138 4.77666195 4.77208026 4.77061774 4.77208026 4.77666195 4.78439138 4.79344316 4.79839969 4.0 4.0 4.0 4.0 4.0 4.0 4.0 4.0 4.0 4.0 4.0 6.0 6.0 6.0 6.0 6.0 6.0 6.0 6.0 6.0 6.0 6.0 5.93692449 5.93692233 5.93691696 5.93691081 5.93690617 5.93690448 5.93690617 5.93691081 5.93691696 5.93692233 5.93692449 5.79567137 5.79566458 5.79564783 5.79562889 5.79561482 5.79560971 5.79561482 5.79562889 5.79564783 5.79566458 5.79567137 5.63334046 5.63332087 5.63327326 5.63322042 5.63318181 5.63316794 5.63318181 5.63322042 5.63327326 5.63332087 5.63334046 5.45810197 5.4580483 5.45792023 5.45778135 5.45768192 5.45764662 5.45768192 5.45778135 5.45792024 5.4580483 5.45810197 5.26996115 5.26982225 5.26949862 5.26915729 5.26891878 5.2688353 5.26891878 5.26915729 5.26949862 5.26982225 5.26996115 5.07052606 5.07019216 5.06943728 5.06866674 5.0681431 5.06796275 5.0681431 5.06866674 5.06943728 5.07019216 5.07052606 4.8616335 4.86091072 4.85933688 4.8577896 4.85677008 4.85642511 4.85677008 4.8577896 4.85933688 4.86091072 4.8616335 4.63849692 4.63717734 4.6344321 4.63184216 4.63019029 4.62964152 4.63019029 4.63184216 4.6344321 4.63717734 4.63849692 4.37555917 4.37387933 4.37056237 4.36756054 4.36570421 4.36509783 4.36570421 4.36756054 4.37056237 4.37387933 4.37555917 4.0 4.0 4.0 4.0 4.0 4.0 4.0 4.0 4.0 4.0 4.0 6.0 6.0 6.0 6.0 6.0 6.0 6.0 6.0 6.0 6.0 6.0 5.80779847 5.80779848 5.8077985 5.80779853 5.80779855 5.80779856 5.80779855 5.80779853 5.8077985 5.80779848 5.80779847 5.61437481 5.61437483 5.61437489 5.61437496 5.61437501 5.61437504 5.61437501 5.61437496 5.61437489 5.61437483 5.61437481 5.41941528 5.41941533 5.41941544 5.41941557 5.41941568 5.41941572 5.41941568 5.41941557 5.41941544 5.41941533 5.41941528 5.22268257 5.22268265 5.22268286 5.22268311 5.2226833 5.22268337 5.2226833 5.22268311 5.22268286 5.22268265 5.22268257 5.02401577 5.02401591 5.02401628 5.0240167 5.02401703 5.02401715 5.02401703 5.0240167 5.02401628 5.02401591 5.02401577 4.82331918 4.82331943 4.82332004 4.82332074 4.82332126 4.82332145 4.82332126 4.82332074 4.82332004 4.82331943 4.82331918 4.62054895 4.62054935 4.62055028 4.62055131 4.62055206 4.62055233 4.62055206 4.62055131 4.62055028 4.62054935 4.62054895 4.41570199 4.41570252 4.41570375 4.41570504 4.41570595 4.41570627 4.41570595 4.41570504 4.41570375 4.41570252 4.41570199 4.2088134 4.20881391 4.20881503 4.20881616 4.20881693 4.2088172 4.20881693 4.20881616 4.20881503 4.20881391 4.2088134 4.0 4.0 4.0 4.0 4.0 4.0 4.0 4.0 4.0 4.0 4.0 6.0 6.0 6.0 6.0 6.0 6.0 6.0 6.0 6.0 6.0 6.0 5.80971884 5.80971884 5.80971885 5.80971886 5.80971887 5.80971888 5.80971887 5.80971886 5.80971885 5.80971884 5.80971884 5.6176662 5.61766621 5.61766623 5.61766626 5.61766628 5.61766629 5.61766628 5.61766626 5.61766623 5.61766621 5.6176662 5.42337656 5.42337658 5.42337662 5.42337667 5.42337671 5.42337672 5.42337671 5.42337667 5.42337662 5.42337658 5.42337656 5.22670445 5.22670448 5.22670455 5.22670464 5.2267047 5.22670473 5.2267047 5.22670464 5.22670455 5.22670448 5.22670445 5.02765728 5.02765732 5.02765744 5.02765758 5.02765768 5.02765773 5.02765768 5.02765758 5.02765744 5.02765732 5.02765728 4.82630946 4.82630954 4.82630971 4.82630992 4.82631009 4.82631015 4.82631009 4.82630992 4.82630971 4.82630954 4.82630946 4.62275876 4.62275886 4.62275911 4.6227594 4.62275962 4.6227597 4.62275962 4.6227594 4.62275911 4.62275886 4.62275876 4.41710558 4.4171057 4.41710601 4.41710635 4.4171066 4.41710669 4.4171066 4.41710635 4.41710601 4.4171057 4.41710558 4.20945372 4.20945383 4.20945409 4.20945437 4.20945457 4.20945464 4.20945457 4.20945437 4.20945409 4.20945383 4.20945372 4.0 4.0 4.0 4.0 4.0 4.0 4.0 4.0 4.0 4.0 4.0 6.0 6.0 6.0 6.0 6.0 6.0 6.0 6.0 6.0 6.0 6.0 5.81635656 5.81635657 5.81635657 5.81635657 5.81635658 5.81635658 5.81635658 5.81635657 5.81635657 5.81635657 5.81635656 5.62642805 5.62642805 5.62642806 5.62642807 5.62642807 5.62642808 5.62642807 5.62642807 5.62642806 5.62642805 5.62642805 5.43195154 5.43195154 5.43195156 5.43195157 5.43195158 5.43195159 5.43195158 5.43195157 5.43195156 5.43195154 5.43195154 5.23400955 5.23400955 5.23400957 5.2340096 5.23400962 5.23400962 5.23400962 5.2340096 5.23400957 5.23400955 5.23400955 5.03330503 5.03330504 5.03330507 5.03330511 5.03330514 5.03330515 5.03330514 5.03330511 5.03330507 5.03330504 5.03330503 4.83030914 4.83030915 4.8303092 4.83030925 4.83030929 4.8303093 4.83030929 4.83030925 4.8303092 4.83030915 4.83030914 4.62533829 4.62533831 4.62533837 4.62533843 4.62533849 4.6253385 4.62533849 4.62533843 4.62533837 4.62533831 4.62533829 4.41858668 4.4185867 4.41858677 4.41858684 4.4185869 4.41858692 4.4185869 4.41858684 4.41858677 4.4185867 4.41858668 4.2101266 4.21012662 4.21012668 4.21012673 4.21012678 4.21012679 4.21012678 4.21012673 4.21012668 4.21012662 4.2101266 4.0 4.0 4.0 4.0 4.0 4.0 4.0 4.0 4.0 4.0 4.0 6.0 6.0 6.0 6.0 6.0 6.0 6.0 6.0 6.0 6.0 6.0 5.80584458 5.80584458 5.80584458 5.80584458 5.80584459 5.80584459 5.80584459 5.80584458 5.80584458 5.80584458 5.80584458 5.61142625 5.61142625 5.61142625 5.61142626 5.61142626 5.61142626 5.61142626 5.61142626 5.61142625 5.61142625 5.61142625 5.41539727 5.41539727 5.41539728 5.41539729 5.41539729 5.41539729 5.41539729 5.41539729 5.41539728 5.41539727 5.41539727 5.21734988 5.21734989 5.21734989 5.21734991 5.21734991 5.21734992 5.21734991 5.21734991 5.21734989 5.21734989 5.21734988 5.01730447 5.01730448 5.01730449 5.0173045 5.01730452 5.01730452 5.01730452 5.0173045 5.01730449 5.01730448 5.01730447 4.81548796 4.81548797 4.81548798 4.815488 4.81548802 4.81548802 4.81548802 4.815488 4.81548798 4.81548797 4.81548796 4.61225633 4.61225634 4.61225636 4.61225638 4.61225639 4.6122564 4.61225639 4.61225638 4.61225636 4.61225634 4.61225633 4.40810147 4.40810148 4.4081015 4.40810152 4.40810153 4.40810154 4.40810153 4.40810152 4.4081015 4.40810148 4.40810147 4.20372758 4.20372759 4.2037276 4.20372761 4.20372762 4.20372762 4.20372762 4.20372761 4.2037276 4.20372759 4.20372758 4.0 4.0 4.0 4.0 4.0 4.0 4.0 4.0 4.0 4.0 4.0
SCALARS diff_P double 1
LOOKUP_TABLE default