# vtk DataFile Version 2.0
PyFEHM VTK model output
ASCII
DATASET UNSTRUCTURED_GRID
POINTS 1331 double
0.0 0.0 0.0
1.0 0.0 0.0
2.0 0.0 0.0
3.0 0.0 0.0
4.0 0.0 0.0
5.0 0.0 0.0
6.0 0.0 0.0
7.0 0.0 0.0
8.0 0.0 0.0
9.0 0.0 0.0
10.0 0.0 0.0
0.0 1.0 0.0
1.0 1.0 0.0
2.0 1.0 0.0
3.0 1.0 0.0
4.0 1.0 0.0
5.0 1.0 0.0
6.0 1.0 0.0
7.0 1.0 0.0
8.0 1.0 0.0
9.0 1.0 0.0
10.0 1.0 0.0
0.0 2.0 0.0
1.0 2.0 0.0
2.0 2.0 0.0
3.0 2.0 0.0
4.0 2.0 0.0
5.0 2.0 0.0
6.0 2.0 0.0
7.0 2.0 0.0
8.0 2.0 0.0
9.0 2.0 0.0
10.0 2.0 0.0
0.0 3.0 0.0
1.0 3.0 0.0
2.0 3.0 0.0
3.0 3.0 0.0
4.0 3.0 0.0
5.0 3.0 0.0
6.0 3.0 0.0
7.0 3.0 0.0
8.0 3.0 0.0
9.0 3.0 0.0
10.0 3.0 0.0
0.0 4.0 0.0
1.0 4.0 0.0
2.0 4.0 0.0
3.0 4.0 0.0
4.0 4.0 0.0
5.0 4.0 0.0
6.0 4.0 0.0
7.0 4.0 0.0
8.0 4.0 0.0
9.0 4.0 0.0
10.0 4.0 0.0
0.0 5.0 0.0
1.0 5.0 0.0
2.0 5.0 0.0
3.0 5.0 0.0
4.0 5.0 0.0
5.0 5.0 0.0
6.0 5.0 0.0
7.0 5.0 0.0
8.0 5.0 0.0
9.0 5.0 0.0
10.0 5.0 0.0
0.0 6.0 0.0
1.0 6.0 0.0
2.0 6.0 0.0
3.0 6.0 0.0
4.0 6.0 0.0
5.0 6.0 0.0
6.0 6.0 0.0
7.0 6.0 0.0
8.0 6.0 0.0
9.0 6.0 0.0
10.0 6.0 0.0
0.0 7.0 0.0
1.0 7.0 0.0
2.0 7.0 0.0
3.0 7.0 0.0
4.0 7.0 0.0
5.0 7.0 0.0
6.0 7.0 0.0
7.0 7.0 0.0
8.0 7.0 0.0
9.0 7.0 0.0
10.0 7.0 0.0
0.0 8.0 0.0
1.0 8.0 0.0
2.0 8.0 0.0
3.0 8.0 0.0
4.0 8.0 0.0
5.0 8.0 0.0
6.0 8.0 0.0
7.0 8.0 0.0
8.0 8.0 0.0
9.0 8.0 0.0
10.0 8.0 0.0
0.0 9.0 0.0
1.0 9.0 0.0
2.0 9.0 0.0
3.0 9.0 0.0
4.0 9.0 0.0
5.0 9.0 0.0
6.0 9.0 0.0
7.0 9.0 0.0
8.0 9.0 0.0
9.0 9.0 0.0
10.0 9.0 0.0
0.0 10.0 0.0
1.0 10.0 0.0
2.0 10.0 0.0
3.0 10.0 0.0
4.0 10.0 0.0
5.0 10.0 0.0
6.0 10.0 0.0
7.0 10.0 0.0
8.0 10.0 0.0
9.0 10.0 0.0
10.0 10.0 0.0
0.0 0.0 1.0
1.0 0.0 1.0
2.0 0.0 1.0
3.0 0.0 1.0
4.0 0.0 1.0
5.0 0.0 1.0
6.0 0.0 1.0
7.0 0.0 1.0
8.0 0.0 1.0
9.0 0.0 1.0
10.0 0.0 1.0
0.0 1.0 1.0
1.0 1.0 1.0
2.0 1.0 1.0
3.0 1.0 1.0
4.0 1.0 1.0
5.0 1.0 1.0
6.0 1.0 1.0
7.0 1.0 1.0
8.0 1.0 1.0
9.0 1.0 1.0
10.0 1.0 1.0
0.0 2.0 1.0
1.0 2.0 1.0
2.0 2.0 1.0
3.0 2.0 1.0
4.0 2.0 1.0
5.0 2.0 1.0
6.0 2.0 1.0
7.0 2.0 1.0
8.0 2.0 1.0
9.0 2.0 1.0
10.0 2.0 1.0
0.0 3.0 1.0
1.0 3.0 1.0
2.0 3.0 1.0
3.0 3.0 1.0
4.0 3.0 1.0
5.0 3.0 1.0
6.0 3.0 1.0
7.0 3.0 1.0
8.0 3.0 1.0
9.0 3.0 1.0
10.0 3.0 1.0
0.0 4.0 1.0
1.0 4.0 1.0
2.0 4.0 1.0
3.0 4.0 1.0
4.0 4.0 1.0
5.0 4.0 1.0
6.0 4.0 1.0
7.0 4.0 1.0
8.0 4.0 1.0
9.0 4.0 1.0
10.0 4.0 1.0
0.0 5.0 1.0
1.0 5.0 1.0
2.0 5.0 1.0
3.0 5.0 1.0
4.0 5.0 1.0
5.0 5.0 1.0
6.0 5.0 1.0
7.0 5.0 1.0
8.0 5.0 1.0
9.0 5.0 1.0
10.0 5.0 1.0
0.0 6.0 1.0
1.0 6.0 1.0
2.0 6.0 1.0
3.0 6.0 1.0
4.0 6.0 1.0
5.0 6.0 1.0
6.0 6.0 1.0
7.0 6.0 1.0
8.0 6.0 1.0
9.0 6.0 1.0
10.0 6.0 1.0
0.0 7.0 1.0
1.0 7.0 1.0
2.0 7.0 1.0
3.0 7.0 1.0
4.0 7.0 1.0
5.0 7.0 1.0
6.0 7.0 1.0
7.0 7.0 1.0
8.0 7.0 1.0
9.0 7.0 1.0
10.0 7.0 1.0
0.0 8.0 1.0
1.0 8.0 1.0
2.0 8.0 1.0
3.0 8.0 1.0
4.0 8.0 1.0
5.0 8.0 1.0
6.0 8.0 1.0
7.0 8.0 1.0
8.0 8.0 1.0
9.0 8.0 1.0
10.0 8.0 1.0
0.0 9.0 1.0
1.0 9.0 1.0
2.0 9.0 1.0
3.0 9.0 1.0
4.0 9.0 1.0
5.0 9.0 1.0
6.0 9.0 1.0
7.0 9.0 1.0
8.0 9.0 1.0
9.0 9.0 1.0
10.0 9.0 1.0
0.0 10.0 1.0
1.0 10.0 1.0
2.0 10.0 1.0
3.0 10.0 1.0
4.0 10.0 1.0
5.0 10.0 1.0
6.0 10.0 1.0
7.0 10.0 1.0
8.0 10.0 1.0
9.0 10.0 1.0
10.0 10.0 1.0
0.0 0.0 2.0
1.0 0.0 2.0
2.0 0.0 2.0
3.0 0.0 2.0
4.0 0.0 2.0
5.0 0.0 2.0
6.0 0.0 2.0
7.0 0.0 2.0
8.0 0.0 2.0
9.0 0.0 2.0
10.0 0.0 2.0
0.0 1.0 2.0
1.0 1.0 2.0
2.0 1.0 2.0
3.0 1.0 2.0
4.0 1.0 2.0
5.0 1.0 2.0
6.0 1.0 2.0
7.0 1.0 2.0
8.0 1.0 2.0
9.0 1.0 2.0
10.0 1.0 2.0
0.0 2.0 2.0
1.0 2.0 2.0
2.0 2.0 2.0
3.0 2.0 2.0
4.0 2.0 2.0
5.0 2.0 2.0
6.0 2.0 2.0
7.0 2.0 2.0
8.0 2.0 2.0
9.0 2.0 2.0
10.0 2.0 2.0
0.0 3.0 2.0
1.0 3.0 2.0
2.0 3.0 2.0
3.0 3.0 2.0
4.0 3.0 2.0
5.0 3.0 2.0
6.0 3.0 2.0
7.0 3.0 2.0
8.0 3.0 2.0
9.0 3.0 2.0
10.0 3.0 2.0
0.0 4.0 2.0
1.0 4.0 2.0
2.0 4.0 2.0
3.0 4.0 2.0
4.0 4.0 2.0
5.0 4.0 2.0
6.0 4.0 2.0
7.0 4.0 2.0
8.0 4.0 2.0
9.0 4.0 2.0
10.0 4.0 2.0
0.0 5.0 2.0
1.0 5.0 2.0
2.0 5.0 2.0
3.0 5.0 2.0
4.0 5.0 2.0
5.0 5.0 2.0
6.0 5.0 2.0
7.0 5.0 2.0
8.0 5.0 2.0
9.0 5.0 2.0
10.0 5.0 2.0
0.0 6.0 2.0
1.0 6.0 2.0
2.0 6.0 2.0
3.0 6.0 2.0
4.0 6.0 2.0
5.0 6.0 2.0
6.0 6.0 2.0
7.0 6.0 2.0
8.0 6.0 2.0
9.0 6.0 2.0
10.0 6.0 2.0
0.0 7.0 2.0
1.0 7.0 2.0
2.0 7.0 2.0
3.0 7.0 2.0
4.0 7.0 2.0
5.0 7.0 2.0
6.0 7.0 2.0
7.0 7.0 2.0
8.0 7.0 2.0
9.0 7.0 2.0
10.0 7.0 2.0
0.0 8.0 2.0
1.0 8.0 2.0
2.0 8.0 2.0
3.0 8.0 2.0
4.0 8.0 2.0
5.0 8.0 2.0
6.0 8.0 2.0
7.0 8.0 2.0
8.0 8.0 2.0
9.0 8.0 2.0
10.0 8.0 2.0
0.0 9.0 2.0
1.0 9.0 2.0
2.0 9.0 2.0
3.0 9.0 2.0
4.0 9.0 2.0
5.0 9.0 2.0
6.0 9.0 2.0
7.0 9.0 2.0
8.0 9.0 2.0
9.0 9.0 2.0
10.0 9.0 2.0
0.0 10.0 2.0
1.0 10.0 2.0
2.0 10.0 2.0
3.0 10.0 2.0
4.0 10.0 2.0
5.0 10.0 2.0
6.0 10.0 2.0
7.0 10.0 2.0
8.0 10.0 2.0
9.0 10.0 2.0
10.0 10.0 2.0
0.0 0.0 3.0
1.0 0.0 3.0
2.0 0.0 3.0
3.0 0.0 3.0
4.0 0.0 3.0
5.0 0.0 3.0
6.0 0.0 3.0
7.0 0.0 3.0
8.0 0.0 3.0
9.0 0.0 3.0
10.0 0.0 3.0
0.0 1.0 3.0
1.0 1.0 3.0
2.0 1.0 3.0
3.0 1.0 3.0
4.0 1.0 3.0
5.0 1.0 3.0
6.0 1.0 3.0
7.0 1.0 3.0
8.0 1.0 3.0
9.0 1.0 3.0
10.0 1.0 3.0
0.0 2.0 3.0
1.0 2.0 3.0
2.0 2.0 3.0
3.0 2.0 3.0
4.0 2.0 3.0
5.0 2.0 3.0
6.0 2.0 3.0
7.0 2.0 3.0
8.0 2.0 3.0
9.0 2.0 3.0
10.0 2.0 3.0
0.0 3.0 3.0
1.0 3.0 3.0
2.0 3.0 3.0
3.0 3.0 3.0
4.0 3.0 3.0
5.0 3.0 3.0
6.0 3.0 3.0
7.0 3.0 3.0
8.0 3.0 3.0
9.0 3.0 3.0
10.0 3.0 3.0
0.0 4.0 3.0
1.0 4.0 3.0
2.0 4.0 3.0
3.0 4.0 3.0
4.0 4.0 3.0
5.0 4.0 3.0
6.0 4.0 3.0
7.0 4.0 3.0
8.0 4.0 3.0
9.0 4.0 3.0
10.0 4.0 3.0
0.0 5.0 3.0
1.0 5.0 3.0
2.0 5.0 3.0
3.0 5.0 3.0
4.0 5.0 3.0
5.0 5.0 3.0
6.0 5.0 3.0
7.0 5.0 3.0
8.0 5.0 3.0
9.0 5.0 3.0
10.0 5.0 3.0
0.0 6.0 3.0
1.0 6.0 3.0
2.0 6.0 3.0
3.0 6.0 3.0
4.0 6.0 3.0
5.0 6.0 3.0
6.0 6.0 3.0
7.0 6.0 3.0
8.0 6.0 3.0
9.0 6.0 3.0
10.0 6.0 3.0
0.0 7.0 3.0
1.0 7.0 3.0
2.0 7.0 3.0
3.0 7.0 3.0
4.0 7.0 3.0
5.0 7.0 3.0
6.0 7.0 3.0
7.0 7.0 3.0
8.0 7.0 3.0
9.0 7.0 3.0
10.0 7.0 3.0
0.0 8.0 3.0
1.0 8.0 3.0
2.0 8.0 3.0
3.0 8.0 3.0
4.0 8.0 3.0
5.0 8.0 3.0
6.0 8.0 3.0
7.0 8.0 3.0
8.0 8.0 3.0
9.0 8.0 3.0
10.0 8.0 3.0
0.0 9.0 3.0
1.0 9.0 3.0
2.0 9.0 3.0
3.0 9.0 3.0
4.0 9.0 3.0
5.0 9.0 3.0
6.0 9.0 3.0
7.0 9.0 3.0
8.0 9.0 3.0
9.0 9.0 3.0
10.0 9.0 3.0
0.0 10.0 3.0
1.0 10.0 3.0
2.0 10.0 3.0
3.0 10.0 3.0
4.0 10.0 3.0
5.0 10.0 3.0
6.0 10.0 3.0
7.0 10.0 3.0
8.0 10.0 3.0
9.0 10.0 3.0
10.0 10.0 3.0
0.0 0.0 4.0
1.0 0.0 4.0
2.0 0.0 4.0
3.0 0.0 4.0
4.0 0.0 4.0
5.0 0.0 4.0
6.0 0.0 4.0
7.0 0.0 4.0
8.0 0.0 4.0
9.0 0.0 4.0
10.0 0.0 4.0
0.0 1.0 4.0
1.0 1.0 4.0
2.0 1.0 4.0
3.0 1.0 4.0
4.0 1.0 4.0
5.0 1.0 4.0
6.0 1.0 4.0
7.0 1.0 4.0
8.0 1.0 4.0
9.0 1.0 4.0
10.0 1.0 4.0
0.0 2.0 4.0
1.0 2.0 4.0
2.0 2.0 4.0
3.0 2.0 4.0
4.0 2.0 4.0
5.0 2.0 4.0
6.0 2.0 4.0
7.0 2.0 4.0
8.0 2.0 4.0
9.0 2.0 4.0
10.0 2.0 4.0
0.0 3.0 4.0
1.0 3.0 4.0
2.0 3.0 4.0
3.0 3.0 4.0
4.0 3.0 4.0
5.0 3.0 4.0
6.0 3.0 4.0
7.0 3.0 4.0
8.0 3.0 4.0
9.0 3.0 4.0
10.0 3.0 4.0
0.0 4.0 4.0
1.0 4.0 4.0
2.0 4.0 4.0
3.0 4.0 4.0
4.0 4.0 4.0
5.0 4.0 4.0
6.0 4.0 4.0
7.0 4.0 4.0
8.0 4.0 4.0
9.0 4.0 4.0
10.0 4.0 4.0
0.0 5.0 4.0
1.0 5.0 4.0
2.0 5.0 4.0
3.0 5.0 4.0
4.0 5.0 4.0
5.0 5.0 4.0
6.0 5.0 4.0
7.0 5.0 4.0
8.0 5.0 4.0
9.0 5.0 4.0
10.0 5.0 4.0
0.0 6.0 4.0
1.0 6.0 4.0
2.0 6.0 4.0
3.0 6.0 4.0
4.0 6.0 4.0
5.0 6.0 4.0
6.0 6.0 4.0
7.0 6.0 4.0
8.0 6.0 4.0
9.0 6.0 4.0
10.0 6.0 4.0
0.0 7.0 4.0
1.0 7.0 4.0
2.0 7.0 4.0
3.0 7.0 4.0
4.0 7.0 4.0
5.0 7.0 4.0
6.0 7.0 4.0
7.0 7.0 4.0
8.0 7.0 4.0
9.0 7.0 4.0
10.0 7.0 4.0
0.0 8.0 4.0
1.0 8.0 4.0
2.0 8.0 4.0
3.0 8.0 4.0
4.0 8.0 4.0
5.0 8.0 4.0
6.0 8.0 4.0
7.0 8.0 4.0
8.0 8.0 4.0
9.0 8.0 4.0
10.0 8.0 4.0
0.0 9.0 4.0
1.0 9.0 4.0
2.0 9.0 4.0
3.0 9.0 4.0
4.0 9.0 4.0
5.0 9.0 4.0
6.0 9.0 4.0
7.0 9.0 4.0
8.0 9.0 4.0
9.0 9.0 4.0
10.0 9.0 4.0
0.0 10.0 4.0
1.0 10.0 4.0
2.0 10.0 4.0
3.0 10.0 4.0
4.0 10.0 4.0
5.0 10.0 4.0
6.0 10.0 4.0
7.0 10.0 4.0
8.0 10.0 4.0
9.0 10.0 4.0
10.0 10.0 4.0
0.0 0.0 5.0
1.0 0.0 5.0
2.0 0.0 5.0
3.0 0.0 5.0
4.0 0.0 5.0
5.0 0.0 5.0
6.0 0.0 5.0
7.0 0.0 5.0
8.0 0.0 5.0
9.0 0.0 5.0
10.0 0.0 5.0
0.0 1.0 5.0
1.0 1.0 5.0
2.0 1.0 5.0
3.0 1.0 5.0
4.0 1.0 5.0
5.0 1.0 5.0
6.0 1.0 5.0
7.0 1.0 5.0
8.0 1.0 5.0
9.0 1.0 5.0
10.0 1.0 5.0
0.0 2.0 5.0
1.0 2.0 5.0
2.0 2.0 5.0
3.0 2.0 5.0
4.0 2.0 5.0
5.0 2.0 5.0
6.0 2.0 5.0
7.0 2.0 5.0
8.0 2.0 5.0
9.0 2.0 5.0
10.0 2.0 5.0
0.0 3.0 5.0
1.0 3.0 5.0
2.0 3.0 5.0
3.0 3.0 5.0
4.0 3.0 5.0
5.0 3.0 5.0
6.0 3.0 5.0
7.0 3.0 5.0
8.0 3.0 5.0
9.0 3.0 5.0
10.0 3.0 5.0
0.0 4.0 5.0
1.0 4.0 5.0
2.0 4.0 5.0
3.0 4.0 5.0
4.0 4.0 5.0
5.0 4.0 5.0
6.0 4.0 5.0
7.0 4.0 5.0
8.0 4.0 5.0
9.0 4.0 5.0
10.0 4.0 5.0
0.0 5.0 5.0
1.0 5.0 5.0
2.0 5.0 5.0
3.0 5.0 5.0
4.0 5.0 5.0
5.0 5.0 5.0
6.0 5.0 5.0
7.0 5.0 5.0
8.0 5.0 5.0
9.0 5.0 5.0
10.0 5.0 5.0
0.0 6.0 5.0
1.0 6.0 5.0
2.0 6.0 5.0
3.0 6.0 5.0
4.0 6.0 5.0
5.0 6.0 5.0
6.0 6.0 5.0
7.0 6.0 5.0
8.0 6.0 5.0
9.0 6.0 5.0
10.0 6.0 5.0
0.0 7.0 5.0
1.0 7.0 5.0
2.0 7.0 5.0
3.0 7.0 5.0
4.0 7.0 5.0
5.0 7.0 5.0
6.0 7.0 5.0
7.0 7.0 5.0
8.0 7.0 5.0
9.0 7.0 5.0
10.0 7.0 5.0
0.0 8.0 5.0
1.0 8.0 5.0
2.0 8.0 5.0
3.0 8.0 5.0
4.0 8.0 5.0
5.0 8.0 5.0
6.0 8.0 5.0
7.0 8.0 5.0
8.0 8.0 5.0
9.0 8.0 5.0
10.0 8.0 5.0
0.0 9.0 5.0
1.0 9.0 5.0
2.0 9.0 5.0
3.0 9.0 5.0
4.0 9.0 5.0
5.0 9.0 5.0
6.0 9.0 5.0
7.0 9.0 5.0
8.0 9.0 5.0
9.0 9.0 5.0
10.0 9.0 5.0
0.0 10.0 5.0
1.0 10.0 5.0
2.0 10.0 5.0
3.0 10.0 5.0
4.0 10.0 5.0
5.0 10.0 5.0
6.0 10.0 5.0
7.0 10.0 5.0
8.0 10.0 5.0
9.0 10.0 5.0
10.0 10.0 5.0
0.0 0.0 6.0
1.0 0.0 6.0
2.0 0.0 6.0
3.0 0.0 6.0
4.0 0.0 6.0
5.0 0.0 6.0
6.0 0.0 6.0
7.0 0.0 6.0
8.0 0.0 6.0
9.0 0.0 6.0
10.0 0.0 6.0
0.0 1.0 6.0
1.0 1.0 6.0
2.0 1.0 6.0
3.0 1.0 6.0
4.0 1.0 6.0
5.0 1.0 6.0
6.0 1.0 6.0
7.0 1.0 6.0
8.0 1.0 6.0
9.0 1.0 6.0
10.0 1.0 6.0
0.0 2.0 6.0
1.0 2.0 6.0
2.0 2.0 6.0
3.0 2.0 6.0
4.0 2.0 6.0
5.0 2.0 6.0
6.0 2.0 6.0
7.0 2.0 6.0
8.0 2.0 6.0
9.0 2.0 6.0
10.0 2.0 6.0
0.0 3.0 6.0
1.0 3.0 6.0
2.0 3.0 6.0
3.0 3.0 6.0
4.0 3.0 6.0
5.0 3.0 6.0
6.0 3.0 6.0
7.0 3.0 6.0
8.0 3.0 6.0
9.0 3.0 6.0
10.0 3.0 6.0
0.0 4.0 6.0
1.0 4.0 6.0
2.0 4.0 6.0
3.0 4.0 6.0
4.0 4.0 6.0
5.0 4.0 6.0
6.0 4.0 6.0
7.0 4.0 6.0
8.0 4.0 6.0
9.0 4.0 6.0
10.0 4.0 6.0
0.0 5.0 6.0
1.0 5.0 6.0
2.0 5.0 6.0
3.0 5.0 6.0
4.0 5.0 6.0
5.0 5.0 6.0
6.0 5.0 6.0
7.0 5.0 6.0
8.0 5.0 6.0
9.0 5.0 6.0
10.0 5.0 6.0
0.0 6.0 6.0
1.0 6.0 6.0
2.0 6.0 6.0
3.0 6.0 6.0
4.0 6.0 6.0
5.0 6.0 6.0
6.0 6.0 6.0
7.0 6.0 6.0
8.0 6.0 6.0
9.0 6.0 6.0
10.0 6.0 6.0
0.0 7.0 6.0
1.0 7.0 6.0
2.0 7.0 6.0
3.0 7.0 6.0
4.0 7.0 6.0
5.0 7.0 6.0
6.0 7.0 6.0
7.0 7.0 6.0
8.0 7.0 6.0
9.0 7.0 6.0
[...]
POINT_DATA 1331
SCALARS P double 1
LOOKUP_TABLE default
6.0 6.0 6.0 6.0 6.0 6.0 6.0 6.0 6.0 6.0 6.0 5.80337384 5.80337385 5.80337387 5.80337391 5.80337393 5.80337394 5.80337393 5.80337391 5.80337387 5.80337385 5.80337384 5.60579617 5.60579619 5.60579626 5.60579633 5.60579639 5.60579641 5.60579639 5.60579633 5.60579626 5.60579619 5.60579617 5.40747125 5.4074713 5.40747141 5.40747155 5.40747166 5.4074717 5.40747166 5.40747155 5.40747141 5.4074713 5.40747125 5.20849 5.20849009 5.2084903 5.20849054 5.20849072 5.20849079 5.20849072 5.20849054 5.2084903 5.20849009 5.20849 5.00889246 5.00889262 5.00889298 5.00889339 5.00889369 5.00889379 5.00889369 5.00889339 5.00889298 5.00889262 5.00889246 4.80867917 4.80867945 4.80868006 4.8086807 4.80868115 4.80868131 4.80868115 4.8086807 4.80868006 4.80867945 4.80867917 4.60780931 4.60780983 4.60781081 4.60781174 4.60781234 4.60781255 4.60781234 4.60781174 4.60781081 4.60780983 4.60780931 4.40619248 4.40619337 4.40619477 4.40619591 4.4061966 4.40619682 4.4061966 4.40619591 4.40619477 4.40619337 4.40619248 4.20367292 4.20367413 4.20367554 4.2036765 4.20367701 4.20367718 4.20367701 4.2036765 4.20367554 4.20367413 4.20367292 4.0 4.0 4.0 4.0 4.0 4.0 4.0 4.0 4.0 4.0 4.0 6.0 6.0 6.0 6.0 6.0 6.0 6.0 6.0 6.0 6.0 6.0 5.79961692 5.79961694 5.79961697 5.79961702 5.79961705 5.79961707 5.79961705 5.79961702 5.79961697 5.79961694 5.79961692 5.60078325 5.60078329 5.60078338 5.60078349 5.60078357 5.60078361 5.60078357 5.60078349 5.60078338 5.60078329 5.60078325 5.40190312 5.4019032 5.4019034 5.40190362 5.40190379 5.40190385 5.40190379 5.40190362 5.4019034 5.4019032 5.40190312 5.20267791 5.20267808 5.20267848 5.20267892 5.20267923 5.20267935 5.20267923 5.20267892 5.20267848 5.20267808 5.20267791 5.00307686 5.00307726 5.0030781 5.00307894 5.00307952 5.00307972 5.00307952 5.00307894 5.0030781 5.00307726 5.00307686 4.80311104 4.80311206 4.80311386 4.80311546 4.80311647 4.80311681 4.80311647 4.80311546 4.80311386 4.80311206 4.80311104 4.60278955 4.6027925 4.60279647 4.60279938 4.602801 4.60280151 4.602801 4.60279938 4.60279647 4.6027925 4.60278955 4.40211629 4.40212577 4.40213429 4.40213908 4.40214132 4.40214196 4.40214132 4.40213908 4.40213429 4.40212577 4.40211629 4.20111094 4.20113935 4.2011542 4.20115997 4.2011621 4.20116264 4.2011621 4.20115997 4.2011542 4.20113935 4.20111094 4.0 4.0 4.0 4.0 4.0 4.0 4.0 4.0 4.0 4.0 4.0 6.0 6.0 6.0 6.0 6.0 6.0 6.0 6.0 6.0 6.0 6.0 5.79909646 5.79909647 5.79909649 5.79909652 5.79909654 5.79909655 5.79909654 5.79909652 5.79909649 5.79909647 5.79909646 5.59880537 5.59880539 5.59880544 5.59880551 5.59880556 5.59880557 5.59880556 5.59880551 5.59880544 5.59880539 5.59880537 5.39874833 5.39874837 5.39874848 5.3987486 5.3987487 5.39874873 5.3987487 5.3987486 5.39874848 5.39874837 5.39874833 5.19879041 5.19879049 5.1987907 5.19879092 5.19879109 5.19879115 5.19879109 5.19879092 5.1987907 5.19879049 5.19879041 4.99888852 4.99888869 4.99888907 4.99888948 4.99888977 4.99888987 4.99888977 4.99888948 4.99888907 4.99888869 4.99888852 4.79902848 4.79902885 4.79902958 4.79903028 4.79903075 4.79903091 4.79903075 4.79903028 4.79902958 4.79902885 4.79902848 4.59920537 4.59920626 4.59920767 4.59920883 4.59920952 4.59920975 4.59920952 4.59920883 4.59920767 4.59920626 4.59920537 4.39941675 4.39941906 4.39942166 4.39942336 4.39942425 4.39942452 4.39942425 4.39942336 4.39942166 4.39941906 4.39941675 4.19966318 4.19966857 4.19967242 4.19967426 4.19967504 4.19967525 4.19967504 4.19967426 4.19967242 4.19966857 4.19966318 4.0 4.0 4.0 4.0 4.0 4.0 4.0 4.0 4.0 4.0 4.0 6.0 6.0 6.0 6.0 6.0 6.0 6.0 6.0 6.0 6.0 6.0 5.79729999 5.79729999 5.7973 5.79730002 5.79730003 5.79730003 5.79730003 5.79730002 5.7973 5.79729999 5.79729999 5.59550112 5.59550112 5.59550115 5.59550118 5.5955012 5.59550121 5.5955012 5.59550118 5.59550115 5.59550112 5.59550112 5.39437263 5.39437265 5.3943727 5.39437275 5.39437279 5.3943728 5.39437279 5.39437275 5.3943727 5.39437265 5.39437263 5.19377207 5.1937721 5.19377217 5.19377226 5.19377233 5.19377236 5.19377233 5.19377226 5.19377217 5.1937721 5.19377207 4.99362188 4.99362193 4.99362206 4.9936222 4.99362231 4.99362235 4.99362231 4.9936222 4.99362206 4.99362193 4.99362188 4.79389126 4.79389136 4.79389157 4.7938918 4.79389195 4.79389201 4.79389195 4.7938918 4.79389157 4.79389136 4.79389126 4.59458923 4.59458942 4.59458978 4.59459011 4.59459032 4.59459039 4.59459032 4.59459011 4.59458978 4.59458942 4.59458923 4.39576472 4.39576512 4.39576568 4.3957661 4.39576635 4.39576643 4.39576635 4.3957661 4.39576568 4.39576512 4.39576472 4.19751322 4.19751396 4.19751466 4.19751507 4.19751527 4.19751533 4.19751527 4.19751507 4.19751466 4.19751396 4.19751322 4.0 4.0 4.0 4.0 4.0 4.0 4.0 4.0 4.0 4.0 4.0 6.0 6.0 6.0 6.0 6.0 6.0 6.0 6.0 6.0 6.0 6.0 5.32627103 5.32627103 5.32627103 5.32627103 5.32627103 5.32627103 5.32627103 5.32627103 5.32627103 5.32627103 5.32627103 5.18493291 5.18493292 5.18493292 5.18493292 5.18493293 5.18493293 5.18493293 5.18493292 5.18493292 5.18493292 5.18493291 5.12246695 5.12246695 5.12246696 5.12246696 5.12246697 5.12246697 5.12246697 5.12246696 5.12246696 5.12246695 5.12246695 5.06779279 5.06779279 5.06779279 5.06779279 5.0677928 5.06779281 5.0677928 5.06779279 5.06779279 5.06779279 5.06779279 5.01380224 5.01380219 5.01380215 5.01380214 5.01380214 5.01380215 5.01380214 5.01380214 5.01380215 5.01380219 5.01380224 4.95991896 4.95991853 4.95991816 4.95991802 4.95991799 4.95991799 4.95991799 4.95991802 4.95991816 4.95991853 4.95991896 4.9054531 4.90545019 4.90544793 4.90544709 4.90544688 4.90544684 4.90544688 4.90544709 4.90544793 4.90545019 4.9054531 4.84300804 4.84299131 4.84298001 4.8429762 4.84297527 4.84297511 4.84297527 4.8429762 4.84298001 4.84299131 4.84300804 4.70004478 4.69997549 4.69993576 4.69992385 4.69992119 4.69992076 4.69992119 4.69992385 4.69993576 4.69997549 4.70004478 4.0 4.0 4.0 4.0 4.0 4.0 4.0 4.0 4.0 4.0 4.0 6.0 6.0 6.0 6.0 6.0 6.0 6.0 6.0 6.0 6.0 6.0 5.18418453 5.18418453 5.18418453 5.18418453 5.18418453 5.18418453 5.18418453 5.18418453 5.18418453 5.18418453 5.18418453 5.05195277 5.05195277 5.05195277 5.05195277 5.05195277 5.05195277 5.05195277 5.05195277 5.05195277 5.05195277 5.05195277 5.02752772 5.02752772 5.02752772 5.02752772 5.02752772 5.02752772 5.02752772 5.02752772 5.02752772 5.02752772 5.02752772 5.01452159 5.01452159 5.01452159 5.01452159 5.01452159 5.01452159 5.01452159 5.01452159 5.01452159 5.01452159 5.01452159 5.00249873 5.00249871 5.00249869 5.00249869 5.00249868 5.00249868 5.00249868 5.00249869 5.00249869 5.00249871 5.00249873 4.99047468 4.99047456 4.99047444 4.99047439 4.99047437 4.99047437 4.99047437 4.99047439 4.99047444 4.99047456 4.99047468 4.97740504 4.97740434 4.97740372 4.97740345 4.97740337 4.97740335 4.97740337 4.97740345 4.97740372 4.97740434 4.97740504 4.95269876 4.95269533 4.9526926 4.95269155 4.95269126 4.9526912 4.95269126 4.95269155 4.9526926 4.95269533 4.95269876 4.8198284 4.81981659 4.81980842 4.81980558 4.81980486 4.81980473 4.81980486 4.81980558 4.81980842 4.81981659 4.8198284 4.0 4.0 4.0 4.0 4.0 4.0 4.0 4.0 4.0 4.0 4.0 6.0 6.0 6.0 6.0 6.0 6.0 6.0 6.0 6.0 6.0 6.0 5.31297942 5.31297942 5.31297942 5.31297942 5.31297942 5.31297942 5.31297942 5.31297942 5.31297942 5.31297942 5.31297942 5.16964629 5.16964629 5.16964629 5.16964629 5.16964629 5.16964629 5.16964629 5.16964629 5.16964629 5.16964629 5.16964629 5.1063894 5.1063894 5.1063894 5.1063894 5.1063894 5.1063894 5.1063894 5.1063894 5.1063894 5.1063894 5.1063894 5.05091458 5.05091458 5.05091458 5.05091458 5.05091458 5.05091458 5.05091458 5.05091458 5.05091458 5.05091458 5.05091458 4.99603661 4.99603661 4.9960366 4.9960366 4.9960366 4.9960366 4.9960366 4.9960366 4.9960366 4.99603661 4.99603661 4.9411859 4.94118588 4.94118586 4.94118585 4.94118584 4.94118584 4.94118584 4.94118585 4.94118586 4.94118588 4.9411859 4.88568865 4.88568854 4.88568843 4.88568838 4.88568837 4.88568836 4.88568837 4.88568838 4.88568843 4.88568854 4.88568865 4.82210062 4.82210015 4.82209973 4.82209955 4.82209949 4.82209948 4.82209949 4.82209955 4.82209973 4.82210015 4.82210062 4.67881603 4.67881463 4.6788135 4.67881306 4.67881293 4.67881291 4.67881293 4.67881306 4.6788135 4.67881463 4.67881603 4.0 4.0 4.0 4.0 4.0 4.0 4.0 4.0 4.0 4.0 4.0 6.0 6.0 6.0 6.0 6.0 6.0 6.0 6.0 6.0 6.0 6.0 5.80362754 5.80362754 5.80362754 5.80362754 5.80362754 5.80362754 5.80362754 5.80362754 5.80362754 5.80362754 5.80362754 5.60630839 5.60630839 5.60630839 5.60630839 5.60630839 5.60630839 5.60630839 5.60630839 5.60630839 5.60630839 5.60630839 5.40808422 5.40808422 5.40808422 5.40808422 5.40808422 5.40808422 5.40808422 5.40808422 5.40808422 5.40808422 5.40808422 5.20902512 5.20902512 5.20902512 5.20902512 5.20902512 5.20902512 5.20902512 5.20902512 5.20902512 5.20902512 5.20902512 5.00920995 5.00920995 5.00920995 5.00920995 5.00920995 5.00920995 5.00920995 5.00920995 5.00920995 5.00920995 5.00920995 4.80870628 4.80870628 4.80870628 4.80870628 4.80870628 4.80870628 4.80870628 4.80870628 4.80870628 4.80870628 4.80870628 4.60755485 4.60755485 4.60755485 4.60755485 4.60755485 4.60755485 4.60755485 4.60755485 4.60755485 4.60755485 4.60755485 4.40575848 4.40575848 4.40575848 4.40575848 4.40575848 4.40575848 4.40575848 4.40575848 4.40575848 4.40575848 4.40575848 4.20327293 4.20327293 4.20327293 4.20327293 4.20327293 4.20327293 4.20327293 4.20327293 4.20327293 4.20327293 4.20327293 4.0 4.0 4.0 4.0 4.0 4.0 4.0 4.0 4.0 4.0 4.0 6.0 6.0 6.0 6.0 6.0 6.0 6.0 6.0 6.0 6.0 6.0 5.80322612 5.80322612 5.80322612 5.80322612 5.80322612 5.80322612 5.80322612 5.80322612 5.80322612 5.80322612 5.80322612 5.60534344 5.60534344 5.60534344 5.60534344 5.60534344 5.60534344 5.60534344 5.60534344 5.60534344 5.60534344 5.60534344 5.40637639 5.40637639 5.40637639 5.40637639 5.40637639 5.40637639 5.40637639 5.40637639 5.40637639 5.40637639 5.40637639 5.20655587 5.20655587 5.20655587 5.20655587 5.20655587 5.20655587 5.20655587 5.20655587 5.20655587 5.20655587 5.20655587 5.00612764 5.00612764 5.00612764 5.00612764 5.00612764 5.00612764 5.00612764 5.00612764 5.00612764 5.00612764 5.00612764 4.80528729 4.80528729 4.80528729 4.80528729 4.80528729 4.80528729 4.80528729 4.80528729 4.80528729 4.80528729 4.80528729 4.60417207 4.60417207 4.60417207 4.60417207 4.60417207 4.60417207 4.60417207 4.60417207 4.60417207 4.60417207 4.60417207 4.4028738 4.4028738 4.4028738 4.4028738 4.4028738 4.4028738 4.4028738 4.4028738 4.4028738 4.4028738 4.4028738 4.20145917 4.20145917 4.20145917 4.20145917 4.20145917 4.20145917 4.20145917 4.20145917 4.20145917 4.20145917 4.20145917 4.0 4.0 4.0 4.0 4.0 4.0 4.0 4.0 4.0 4.0 4.0 6.0 6.0 6.0 6.0 6.0 6.0 6.0 6.0 6.0 6.0 6.0 5.80697119 5.80697119 5.80697119 5.80697119 5.80697119 5.80697119 5.80697119 5.80697119 5.80697119 5.80697119 5.80697119 5.60907763 5.60907763 5.60907763 5.60907763 5.60907763 5.60907763 5.60907763 5.60907763 5.60907763 5.60907763 5.60907763 5.40868205 5.40868205 5.40868205 5.40868205 5.40868205 5.40868205 5.40868205 5.40868205 5.40868205 5.40868205 5.40868205 5.20720866 5.20720866 5.20720866 5.20720866 5.20720866 5.20720866 5.20720866 5.20720866 5.20720866 5.20720866 5.20720866 5.00542446 5.00542446 5.00542446 5.00542446 5.00542446 5.00542446 5.00542446 5.00542446 5.00542446 5.00542446 5.00542446 4.80372091 4.80372091 4.80372091 4.80372091 4.80372091 4.80372091 4.80372091 4.80372091 4.80372091 4.80372091 4.80372091 4.60227961 4.60227961 4.60227961 4.60227961 4.60227961 4.60227961 4.60227961 4.60227961 4.60227961 4.60227961 4.60227961 4.40117398 4.40117398 4.40117398 4.40117398 4.40117398 4.40117398 4.40117398 4.40117398 4.40117398 4.40117398 4.40117398 4.20041978 4.20041978 4.20041978 4.20041978 4.20041978 4.20041978 4.20041978 4.20041978 4.20041978 4.20041978 4.20041978 4.0 4.0 4.0 4.0 4.0 4.0 4.0 4.0 4.0 4.0 4.0 6.0 6.0 6.0 6.0 6.0 6.0 6.0 6.0 6.0 6.0 6.0 5.79923335 5.79923335 5.79923335 5.79923335 5.79923335 5.79923335 5.79923335 5.79923335 5.79923335 5.79923335 5.79923335 5.59884342 5.59884342 5.59884342 5.59884342 5.59884342 5.59884342 5.59884342 5.59884342 5.59884342 5.59884342 5.59884342 5.39827646 5.39827646 5.39827646 5.39827646 5.39827646 5.39827646 5.39827646 5.39827646 5.39827646 5.39827646 5.39827646 5.19748147 5.19748147 5.19748147 5.19748147 5.19748147 5.19748147 5.19748147 5.19748147 5.19748147 5.19748147 5.19748147 4.99666566 4.99666566 4.99666566 4.99666566 4.99666566 4.99666566 4.99666566 4.99666566 4.99666566 4.99666566 4.99666566 4.79602252 4.79602252 4.79602252 4.79602252 4.79602252 4.79602252 4.79602252 4.79602252 4.79602252 4.79602252 4.79602252 4.59576392 4.59576392 4.59576392 4.59576392 4.59576392 4.59576392 4.59576392 4.59576392 4.59576392 4.59576392 4.59576392 4.39612622 4.39612622 4.39612622 4.39612622 4.39612622 4.39612622 4.39612622 4.39612622 4.39612622 4.39612622 4.39612622 4.19740288 4.19740288 4.19740288 4.19740288 4.19740288 4.19740288 4.19740288 4.19740288 4.19740288 4.19740288 4.19740288 4.0 4.0 4.0 4.0 4.0 4.0 4.0 4.0 4.0 4.0 4.0
SCALARS diff_P double 1
LOOKUP_TABLE default