# vtk DataFile Version 2.0
PyFEHM VTK model output
ASCII
DATASET UNSTRUCTURED_GRID
POINTS 1331 double
0.0 0.0 0.0
1.0 0.0 0.0
2.0 0.0 0.0
3.0 0.0 0.0
4.0 0.0 0.0
5.0 0.0 0.0
6.0 0.0 0.0
7.0 0.0 0.0
8.0 0.0 0.0
9.0 0.0 0.0
10.0 0.0 0.0
0.0 1.0 0.0
1.0 1.0 0.0
2.0 1.0 0.0
3.0 1.0 0.0
4.0 1.0 0.0
5.0 1.0 0.0
6.0 1.0 0.0
7.0 1.0 0.0
8.0 1.0 0.0
9.0 1.0 0.0
10.0 1.0 0.0
0.0 2.0 0.0
1.0 2.0 0.0
2.0 2.0 0.0
3.0 2.0 0.0
4.0 2.0 0.0
5.0 2.0 0.0
6.0 2.0 0.0
7.0 2.0 0.0
8.0 2.0 0.0
9.0 2.0 0.0
10.0 2.0 0.0
0.0 3.0 0.0
1.0 3.0 0.0
2.0 3.0 0.0
3.0 3.0 0.0
4.0 3.0 0.0
5.0 3.0 0.0
6.0 3.0 0.0
7.0 3.0 0.0
8.0 3.0 0.0
9.0 3.0 0.0
10.0 3.0 0.0
0.0 4.0 0.0
1.0 4.0 0.0
2.0 4.0 0.0
3.0 4.0 0.0
4.0 4.0 0.0
5.0 4.0 0.0
6.0 4.0 0.0
7.0 4.0 0.0
8.0 4.0 0.0
9.0 4.0 0.0
10.0 4.0 0.0
0.0 5.0 0.0
1.0 5.0 0.0
2.0 5.0 0.0
3.0 5.0 0.0
4.0 5.0 0.0
5.0 5.0 0.0
6.0 5.0 0.0
7.0 5.0 0.0
8.0 5.0 0.0
9.0 5.0 0.0
10.0 5.0 0.0
0.0 6.0 0.0
1.0 6.0 0.0
2.0 6.0 0.0
3.0 6.0 0.0
4.0 6.0 0.0
5.0 6.0 0.0
6.0 6.0 0.0
7.0 6.0 0.0
8.0 6.0 0.0
9.0 6.0 0.0
10.0 6.0 0.0
0.0 7.0 0.0
1.0 7.0 0.0
2.0 7.0 0.0
3.0 7.0 0.0
4.0 7.0 0.0
5.0 7.0 0.0
6.0 7.0 0.0
7.0 7.0 0.0
8.0 7.0 0.0
9.0 7.0 0.0
10.0 7.0 0.0
0.0 8.0 0.0
1.0 8.0 0.0
2.0 8.0 0.0
3.0 8.0 0.0
4.0 8.0 0.0
5.0 8.0 0.0
6.0 8.0 0.0
7.0 8.0 0.0
8.0 8.0 0.0
9.0 8.0 0.0
10.0 8.0 0.0
0.0 9.0 0.0
1.0 9.0 0.0
2.0 9.0 0.0
3.0 9.0 0.0
4.0 9.0 0.0
5.0 9.0 0.0
6.0 9.0 0.0
7.0 9.0 0.0
8.0 9.0 0.0
9.0 9.0 0.0
10.0 9.0 0.0
0.0 10.0 0.0
1.0 10.0 0.0
2.0 10.0 0.0
3.0 10.0 0.0
4.0 10.0 0.0
5.0 10.0 0.0
6.0 10.0 0.0
7.0 10.0 0.0
8.0 10.0 0.0
9.0 10.0 0.0
10.0 10.0 0.0
0.0 0.0 1.0
1.0 0.0 1.0
2.0 0.0 1.0
3.0 0.0 1.0
4.0 0.0 1.0
5.0 0.0 1.0
6.0 0.0 1.0
7.0 0.0 1.0
8.0 0.0 1.0
9.0 0.0 1.0
10.0 0.0 1.0
0.0 1.0 1.0
1.0 1.0 1.0
2.0 1.0 1.0
3.0 1.0 1.0
4.0 1.0 1.0
5.0 1.0 1.0
6.0 1.0 1.0
7.0 1.0 1.0
8.0 1.0 1.0
9.0 1.0 1.0
10.0 1.0 1.0
0.0 2.0 1.0
1.0 2.0 1.0
2.0 2.0 1.0
3.0 2.0 1.0
4.0 2.0 1.0
5.0 2.0 1.0
6.0 2.0 1.0
7.0 2.0 1.0
8.0 2.0 1.0
9.0 2.0 1.0
10.0 2.0 1.0
0.0 3.0 1.0
1.0 3.0 1.0
2.0 3.0 1.0
3.0 3.0 1.0
4.0 3.0 1.0
5.0 3.0 1.0
6.0 3.0 1.0
7.0 3.0 1.0
8.0 3.0 1.0
9.0 3.0 1.0
10.0 3.0 1.0
0.0 4.0 1.0
1.0 4.0 1.0
2.0 4.0 1.0
3.0 4.0 1.0
4.0 4.0 1.0
5.0 4.0 1.0
6.0 4.0 1.0
7.0 4.0 1.0
8.0 4.0 1.0
9.0 4.0 1.0
10.0 4.0 1.0
0.0 5.0 1.0
1.0 5.0 1.0
2.0 5.0 1.0
3.0 5.0 1.0
4.0 5.0 1.0
5.0 5.0 1.0
6.0 5.0 1.0
7.0 5.0 1.0
8.0 5.0 1.0
9.0 5.0 1.0
10.0 5.0 1.0
0.0 6.0 1.0
1.0 6.0 1.0
2.0 6.0 1.0
3.0 6.0 1.0
4.0 6.0 1.0
5.0 6.0 1.0
6.0 6.0 1.0
7.0 6.0 1.0
8.0 6.0 1.0
9.0 6.0 1.0
10.0 6.0 1.0
0.0 7.0 1.0
1.0 7.0 1.0
2.0 7.0 1.0
3.0 7.0 1.0
4.0 7.0 1.0
5.0 7.0 1.0
6.0 7.0 1.0
7.0 7.0 1.0
8.0 7.0 1.0
9.0 7.0 1.0
10.0 7.0 1.0
0.0 8.0 1.0
1.0 8.0 1.0
2.0 8.0 1.0
3.0 8.0 1.0
4.0 8.0 1.0
5.0 8.0 1.0
6.0 8.0 1.0
7.0 8.0 1.0
8.0 8.0 1.0
9.0 8.0 1.0
10.0 8.0 1.0
0.0 9.0 1.0
1.0 9.0 1.0
2.0 9.0 1.0
3.0 9.0 1.0
4.0 9.0 1.0
5.0 9.0 1.0
6.0 9.0 1.0
7.0 9.0 1.0
8.0 9.0 1.0
9.0 9.0 1.0
10.0 9.0 1.0
0.0 10.0 1.0
1.0 10.0 1.0
2.0 10.0 1.0
3.0 10.0 1.0
4.0 10.0 1.0
5.0 10.0 1.0
6.0 10.0 1.0
7.0 10.0 1.0
8.0 10.0 1.0
9.0 10.0 1.0
10.0 10.0 1.0
0.0 0.0 2.0
1.0 0.0 2.0
2.0 0.0 2.0
3.0 0.0 2.0
4.0 0.0 2.0
5.0 0.0 2.0
6.0 0.0 2.0
7.0 0.0 2.0
8.0 0.0 2.0
9.0 0.0 2.0
10.0 0.0 2.0
0.0 1.0 2.0
1.0 1.0 2.0
2.0 1.0 2.0
3.0 1.0 2.0
4.0 1.0 2.0
5.0 1.0 2.0
6.0 1.0 2.0
7.0 1.0 2.0
8.0 1.0 2.0
9.0 1.0 2.0
10.0 1.0 2.0
0.0 2.0 2.0
1.0 2.0 2.0
2.0 2.0 2.0
3.0 2.0 2.0
4.0 2.0 2.0
5.0 2.0 2.0
6.0 2.0 2.0
7.0 2.0 2.0
8.0 2.0 2.0
9.0 2.0 2.0
10.0 2.0 2.0
0.0 3.0 2.0
1.0 3.0 2.0
2.0 3.0 2.0
3.0 3.0 2.0
4.0 3.0 2.0
5.0 3.0 2.0
6.0 3.0 2.0
7.0 3.0 2.0
8.0 3.0 2.0
9.0 3.0 2.0
10.0 3.0 2.0
0.0 4.0 2.0
1.0 4.0 2.0
2.0 4.0 2.0
3.0 4.0 2.0
4.0 4.0 2.0
5.0 4.0 2.0
6.0 4.0 2.0
7.0 4.0 2.0
8.0 4.0 2.0
9.0 4.0 2.0
10.0 4.0 2.0
0.0 5.0 2.0
1.0 5.0 2.0
2.0 5.0 2.0
3.0 5.0 2.0
4.0 5.0 2.0
5.0 5.0 2.0
6.0 5.0 2.0
7.0 5.0 2.0
8.0 5.0 2.0
9.0 5.0 2.0
10.0 5.0 2.0
0.0 6.0 2.0
1.0 6.0 2.0
2.0 6.0 2.0
3.0 6.0 2.0
4.0 6.0 2.0
5.0 6.0 2.0
6.0 6.0 2.0
7.0 6.0 2.0
8.0 6.0 2.0
9.0 6.0 2.0
10.0 6.0 2.0
0.0 7.0 2.0
1.0 7.0 2.0
2.0 7.0 2.0
3.0 7.0 2.0
4.0 7.0 2.0
5.0 7.0 2.0
6.0 7.0 2.0
7.0 7.0 2.0
8.0 7.0 2.0
9.0 7.0 2.0
10.0 7.0 2.0
0.0 8.0 2.0
1.0 8.0 2.0
2.0 8.0 2.0
3.0 8.0 2.0
4.0 8.0 2.0
5.0 8.0 2.0
6.0 8.0 2.0
7.0 8.0 2.0
8.0 8.0 2.0
9.0 8.0 2.0
10.0 8.0 2.0
0.0 9.0 2.0
1.0 9.0 2.0
2.0 9.0 2.0
3.0 9.0 2.0
4.0 9.0 2.0
5.0 9.0 2.0
6.0 9.0 2.0
7.0 9.0 2.0
8.0 9.0 2.0
9.0 9.0 2.0
10.0 9.0 2.0
0.0 10.0 2.0
1.0 10.0 2.0
2.0 10.0 2.0
3.0 10.0 2.0
4.0 10.0 2.0
5.0 10.0 2.0
6.0 10.0 2.0
7.0 10.0 2.0
8.0 10.0 2.0
9.0 10.0 2.0
10.0 10.0 2.0
0.0 0.0 3.0
1.0 0.0 3.0
2.0 0.0 3.0
3.0 0.0 3.0
4.0 0.0 3.0
5.0 0.0 3.0
6.0 0.0 3.0
7.0 0.0 3.0
8.0 0.0 3.0
9.0 0.0 3.0
10.0 0.0 3.0
0.0 1.0 3.0
1.0 1.0 3.0
2.0 1.0 3.0
3.0 1.0 3.0
4.0 1.0 3.0
5.0 1.0 3.0
6.0 1.0 3.0
7.0 1.0 3.0
8.0 1.0 3.0
9.0 1.0 3.0
10.0 1.0 3.0
0.0 2.0 3.0
1.0 2.0 3.0
2.0 2.0 3.0
3.0 2.0 3.0
4.0 2.0 3.0
5.0 2.0 3.0
6.0 2.0 3.0
7.0 2.0 3.0
8.0 2.0 3.0
9.0 2.0 3.0
10.0 2.0 3.0
0.0 3.0 3.0
1.0 3.0 3.0
2.0 3.0 3.0
3.0 3.0 3.0
4.0 3.0 3.0
5.0 3.0 3.0
6.0 3.0 3.0
7.0 3.0 3.0
8.0 3.0 3.0
9.0 3.0 3.0
10.0 3.0 3.0
0.0 4.0 3.0
1.0 4.0 3.0
2.0 4.0 3.0
3.0 4.0 3.0
4.0 4.0 3.0
5.0 4.0 3.0
6.0 4.0 3.0
7.0 4.0 3.0
8.0 4.0 3.0
9.0 4.0 3.0
10.0 4.0 3.0
0.0 5.0 3.0
1.0 5.0 3.0
2.0 5.0 3.0
3.0 5.0 3.0
4.0 5.0 3.0
5.0 5.0 3.0
6.0 5.0 3.0
7.0 5.0 3.0
8.0 5.0 3.0
9.0 5.0 3.0
10.0 5.0 3.0
0.0 6.0 3.0
1.0 6.0 3.0
2.0 6.0 3.0
3.0 6.0 3.0
4.0 6.0 3.0
5.0 6.0 3.0
6.0 6.0 3.0
7.0 6.0 3.0
8.0 6.0 3.0
9.0 6.0 3.0
10.0 6.0 3.0
0.0 7.0 3.0
1.0 7.0 3.0
2.0 7.0 3.0
3.0 7.0 3.0
4.0 7.0 3.0
5.0 7.0 3.0
6.0 7.0 3.0
7.0 7.0 3.0
8.0 7.0 3.0
9.0 7.0 3.0
10.0 7.0 3.0
0.0 8.0 3.0
1.0 8.0 3.0
2.0 8.0 3.0
3.0 8.0 3.0
4.0 8.0 3.0
5.0 8.0 3.0
6.0 8.0 3.0
7.0 8.0 3.0
8.0 8.0 3.0
9.0 8.0 3.0
10.0 8.0 3.0
0.0 9.0 3.0
1.0 9.0 3.0
2.0 9.0 3.0
3.0 9.0 3.0
4.0 9.0 3.0
5.0 9.0 3.0
6.0 9.0 3.0
7.0 9.0 3.0
8.0 9.0 3.0
9.0 9.0 3.0
10.0 9.0 3.0
0.0 10.0 3.0
1.0 10.0 3.0
2.0 10.0 3.0
3.0 10.0 3.0
4.0 10.0 3.0
5.0 10.0 3.0
6.0 10.0 3.0
7.0 10.0 3.0
8.0 10.0 3.0
9.0 10.0 3.0
10.0 10.0 3.0
0.0 0.0 4.0
1.0 0.0 4.0
2.0 0.0 4.0
3.0 0.0 4.0
4.0 0.0 4.0
5.0 0.0 4.0
6.0 0.0 4.0
7.0 0.0 4.0
8.0 0.0 4.0
9.0 0.0 4.0
10.0 0.0 4.0
0.0 1.0 4.0
1.0 1.0 4.0
2.0 1.0 4.0
3.0 1.0 4.0
4.0 1.0 4.0
5.0 1.0 4.0
6.0 1.0 4.0
7.0 1.0 4.0
8.0 1.0 4.0
9.0 1.0 4.0
10.0 1.0 4.0
0.0 2.0 4.0
1.0 2.0 4.0
2.0 2.0 4.0
3.0 2.0 4.0
4.0 2.0 4.0
5.0 2.0 4.0
6.0 2.0 4.0
7.0 2.0 4.0
8.0 2.0 4.0
9.0 2.0 4.0
10.0 2.0 4.0
0.0 3.0 4.0
1.0 3.0 4.0
2.0 3.0 4.0
3.0 3.0 4.0
4.0 3.0 4.0
5.0 3.0 4.0
6.0 3.0 4.0
7.0 3.0 4.0
8.0 3.0 4.0
9.0 3.0 4.0
10.0 3.0 4.0
0.0 4.0 4.0
1.0 4.0 4.0
2.0 4.0 4.0
3.0 4.0 4.0
4.0 4.0 4.0
5.0 4.0 4.0
6.0 4.0 4.0
7.0 4.0 4.0
8.0 4.0 4.0
9.0 4.0 4.0
10.0 4.0 4.0
0.0 5.0 4.0
1.0 5.0 4.0
2.0 5.0 4.0
3.0 5.0 4.0
4.0 5.0 4.0
5.0 5.0 4.0
6.0 5.0 4.0
7.0 5.0 4.0
8.0 5.0 4.0
9.0 5.0 4.0
10.0 5.0 4.0
0.0 6.0 4.0
1.0 6.0 4.0
2.0 6.0 4.0
3.0 6.0 4.0
4.0 6.0 4.0
5.0 6.0 4.0
6.0 6.0 4.0
7.0 6.0 4.0
8.0 6.0 4.0
9.0 6.0 4.0
10.0 6.0 4.0
0.0 7.0 4.0
1.0 7.0 4.0
2.0 7.0 4.0
3.0 7.0 4.0
4.0 7.0 4.0
5.0 7.0 4.0
6.0 7.0 4.0
7.0 7.0 4.0
8.0 7.0 4.0
9.0 7.0 4.0
10.0 7.0 4.0
0.0 8.0 4.0
1.0 8.0 4.0
2.0 8.0 4.0
3.0 8.0 4.0
4.0 8.0 4.0
5.0 8.0 4.0
6.0 8.0 4.0
7.0 8.0 4.0
8.0 8.0 4.0
9.0 8.0 4.0
10.0 8.0 4.0
0.0 9.0 4.0
1.0 9.0 4.0
2.0 9.0 4.0
3.0 9.0 4.0
4.0 9.0 4.0
5.0 9.0 4.0
6.0 9.0 4.0
7.0 9.0 4.0
8.0 9.0 4.0
9.0 9.0 4.0
10.0 9.0 4.0
0.0 10.0 4.0
1.0 10.0 4.0
2.0 10.0 4.0
3.0 10.0 4.0
4.0 10.0 4.0
5.0 10.0 4.0
6.0 10.0 4.0
7.0 10.0 4.0
8.0 10.0 4.0
9.0 10.0 4.0
10.0 10.0 4.0
0.0 0.0 5.0
1.0 0.0 5.0
2.0 0.0 5.0
3.0 0.0 5.0
4.0 0.0 5.0
5.0 0.0 5.0
6.0 0.0 5.0
7.0 0.0 5.0
8.0 0.0 5.0
9.0 0.0 5.0
10.0 0.0 5.0
0.0 1.0 5.0
1.0 1.0 5.0
2.0 1.0 5.0
3.0 1.0 5.0
4.0 1.0 5.0
5.0 1.0 5.0
6.0 1.0 5.0
7.0 1.0 5.0
8.0 1.0 5.0
9.0 1.0 5.0
10.0 1.0 5.0
0.0 2.0 5.0
1.0 2.0 5.0
2.0 2.0 5.0
3.0 2.0 5.0
4.0 2.0 5.0
5.0 2.0 5.0
6.0 2.0 5.0
7.0 2.0 5.0
8.0 2.0 5.0
9.0 2.0 5.0
10.0 2.0 5.0
0.0 3.0 5.0
1.0 3.0 5.0
2.0 3.0 5.0
3.0 3.0 5.0
4.0 3.0 5.0
5.0 3.0 5.0
6.0 3.0 5.0
7.0 3.0 5.0
8.0 3.0 5.0
9.0 3.0 5.0
10.0 3.0 5.0
0.0 4.0 5.0
1.0 4.0 5.0
2.0 4.0 5.0
3.0 4.0 5.0
4.0 4.0 5.0
5.0 4.0 5.0
6.0 4.0 5.0
7.0 4.0 5.0
8.0 4.0 5.0
9.0 4.0 5.0
10.0 4.0 5.0
0.0 5.0 5.0
1.0 5.0 5.0
2.0 5.0 5.0
3.0 5.0 5.0
4.0 5.0 5.0
5.0 5.0 5.0
6.0 5.0 5.0
7.0 5.0 5.0
8.0 5.0 5.0
9.0 5.0 5.0
10.0 5.0 5.0
0.0 6.0 5.0
1.0 6.0 5.0
2.0 6.0 5.0
3.0 6.0 5.0
4.0 6.0 5.0
5.0 6.0 5.0
6.0 6.0 5.0
7.0 6.0 5.0
8.0 6.0 5.0
9.0 6.0 5.0
10.0 6.0 5.0
0.0 7.0 5.0
1.0 7.0 5.0
2.0 7.0 5.0
3.0 7.0 5.0
4.0 7.0 5.0
5.0 7.0 5.0
6.0 7.0 5.0
7.0 7.0 5.0
8.0 7.0 5.0
9.0 7.0 5.0
10.0 7.0 5.0
0.0 8.0 5.0
1.0 8.0 5.0
2.0 8.0 5.0
3.0 8.0 5.0
4.0 8.0 5.0
5.0 8.0 5.0
6.0 8.0 5.0
7.0 8.0 5.0
8.0 8.0 5.0
9.0 8.0 5.0
10.0 8.0 5.0
0.0 9.0 5.0
1.0 9.0 5.0
2.0 9.0 5.0
3.0 9.0 5.0
4.0 9.0 5.0
5.0 9.0 5.0
6.0 9.0 5.0
7.0 9.0 5.0
8.0 9.0 5.0
9.0 9.0 5.0
10.0 9.0 5.0
0.0 10.0 5.0
1.0 10.0 5.0
2.0 10.0 5.0
3.0 10.0 5.0
4.0 10.0 5.0
5.0 10.0 5.0
6.0 10.0 5.0
7.0 10.0 5.0
8.0 10.0 5.0
9.0 10.0 5.0
10.0 10.0 5.0
0.0 0.0 6.0
1.0 0.0 6.0
2.0 0.0 6.0
3.0 0.0 6.0
4.0 0.0 6.0
5.0 0.0 6.0
6.0 0.0 6.0
7.0 0.0 6.0
8.0 0.0 6.0
9.0 0.0 6.0
10.0 0.0 6.0
0.0 1.0 6.0
1.0 1.0 6.0
2.0 1.0 6.0
3.0 1.0 6.0
4.0 1.0 6.0
5.0 1.0 6.0
6.0 1.0 6.0
7.0 1.0 6.0
8.0 1.0 6.0
9.0 1.0 6.0
10.0 1.0 6.0
0.0 2.0 6.0
1.0 2.0 6.0
2.0 2.0 6.0
3.0 2.0 6.0
4.0 2.0 6.0
5.0 2.0 6.0
6.0 2.0 6.0
7.0 2.0 6.0
8.0 2.0 6.0
9.0 2.0 6.0
10.0 2.0 6.0
0.0 3.0 6.0
1.0 3.0 6.0
2.0 3.0 6.0
3.0 3.0 6.0
4.0 3.0 6.0
5.0 3.0 6.0
6.0 3.0 6.0
7.0 3.0 6.0
8.0 3.0 6.0
9.0 3.0 6.0
10.0 3.0 6.0
0.0 4.0 6.0
1.0 4.0 6.0
2.0 4.0 6.0
3.0 4.0 6.0
4.0 4.0 6.0
5.0 4.0 6.0
6.0 4.0 6.0
7.0 4.0 6.0
8.0 4.0 6.0
9.0 4.0 6.0
10.0 4.0 6.0
0.0 5.0 6.0
1.0 5.0 6.0
2.0 5.0 6.0
3.0 5.0 6.0
4.0 5.0 6.0
5.0 5.0 6.0
6.0 5.0 6.0
7.0 5.0 6.0
8.0 5.0 6.0
9.0 5.0 6.0
10.0 5.0 6.0
0.0 6.0 6.0
1.0 6.0 6.0
2.0 6.0 6.0
3.0 6.0 6.0
4.0 6.0 6.0
5.0 6.0 6.0
6.0 6.0 6.0
7.0 6.0 6.0
8.0 6.0 6.0
9.0 6.0 6.0
10.0 6.0 6.0
0.0 7.0 6.0
1.0 7.0 6.0
2.0 7.0 6.0
3.0 7.0 6.0
4.0 7.0 6.0
5.0 7.0 6.0
6.0 7.0 6.0
7.0 7.0 6.0
8.0 7.0 6.0
9.0 7.0 6.0
[...]
POINT_DATA 1331
SCALARS P double 1
LOOKUP_TABLE default
6.0 6.0 6.0 6.0 6.0 6.0 6.0 6.0 6.0 6.0 6.0 5.80050407 5.80050438 5.80050518 5.80050615 5.80050693 5.80050722 5.80050693 5.80050615 5.80050518 5.80050438 5.80050407 5.60081688 5.6008176 5.60081945 5.60082168 5.60082344 5.60082411 5.60082344 5.60082168 5.60081945 5.6008176 5.60081688 5.40131934 5.40132068 5.40132409 5.40132817 5.40133136 5.40133256 5.40133136 5.40132817 5.40132409 5.40132068 5.40131934 5.2019859 5.20198825 5.20199415 5.20200104 5.20200636 5.20200833 5.20200636 5.20200104 5.20199415 5.20198825 5.2019859 5.00266562 5.00266962 5.00267937 5.00269041 5.00269871 5.00270175 5.00269871 5.00269041 5.00267937 5.00266962 5.00266562 4.80319573 4.80320248 4.80321806 4.80323485 4.80324701 4.80325138 4.80324701 4.80323485 4.80321806 4.80320248 4.80319573 4.60340805 4.60341912 4.60344242 4.60346576 4.60348179 4.6034874 4.60348179 4.60346576 4.60344242 4.60341912 4.60340805 4.40311718 4.4031339 4.40316427 4.40319167 4.40320922 4.40321515 4.40320922 4.40319167 4.40316427 4.4031339 4.40311718 4.20209337 4.20211216 4.20213975 4.20216152 4.20217436 4.20217853 4.20217436 4.20216152 4.20213975 4.20211216 4.20209337 4.0 4.0 4.0 4.0 4.0 4.0 4.0 4.0 4.0 4.0 4.0 6.0 6.0 6.0 6.0 6.0 6.0 6.0 6.0 6.0 6.0 6.0 5.79203627 5.79203675 5.79203799 5.79203948 5.79204065 5.79204109 5.79204065 5.79203948 5.79203799 5.79203675 5.79203627 5.59030881 5.59030997 5.59031292 5.59031643 5.59031918 5.5903202 5.59031918 5.59031643 5.59031292 5.59030997 5.59030881 5.39093455 5.39093694 5.39094291 5.39094984 5.39095515 5.39095712 5.39095515 5.39094984 5.39094291 5.39093694 5.39093455 5.19234687 5.19235177 5.19236354 5.19237668 5.19238643 5.19238998 5.19238643 5.19237668 5.19236354 5.19235177 5.19234687 4.99390169 4.99391216 4.99393559 4.9939601 4.99397745 4.99398361 4.99397745 4.9939601 4.99393558 4.99391216 4.99390169 4.79532935 4.79535321 4.79540037 4.79544509 4.79547458 4.79548466 4.79547458 4.79544509 4.79540037 4.79535321 4.79532935 4.59651538 4.59657399 4.59666868 4.59674633 4.5967926 4.59680762 4.5967926 4.59674633 4.59666868 4.59657399 4.59651538 4.39742114 4.39757091 4.3977498 4.39786949 4.39793161 4.3979504 4.39793161 4.39786949 4.3977498 4.39757091 4.39742114 4.19817295 4.19850615 4.19876686 4.19889953 4.19895698 4.19897284 4.19895698 4.19889953 4.19876686 4.19850615 4.19817295 4.0 4.0 4.0 4.0 4.0 4.0 4.0 4.0 4.0 4.0 4.0 6.0 6.0 6.0 6.0 6.0 6.0 6.0 6.0 6.0 6.0 6.0 5.79234386 5.79234437 5.79234567 5.79234724 5.79234847 5.79234894 5.79234847 5.79234724 5.79234567 5.79234437 5.79234386 5.58889841 5.58889964 5.58890277 5.5889065 5.58890941 5.5889105 5.58890941 5.5889065 5.58890277 5.58889964 5.58889841 5.38799696 5.38799948 5.38800579 5.38801314 5.38801879 5.38802088 5.38801879 5.38801314 5.38800579 5.38799948 5.38799696 5.18847743 5.18848253 5.18849486 5.18850871 5.18851904 5.18852282 5.18851904 5.18850871 5.18849486 5.18848253 5.18847743 4.9896585 4.98966912 4.98969324 4.9897188 4.98973704 4.98974355 4.98973704 4.9897188 4.98969324 4.98966912 4.9896585 4.79117668 4.79119998 4.79124741 4.79129335 4.79132407 4.79133465 4.79132407 4.79129335 4.79124741 4.79119998 4.79117668 4.59285408 4.59290824 4.59300031 4.59307848 4.59312614 4.59314179 4.59312614 4.59307848 4.59300031 4.59290824 4.59285408 4.39463482 4.39476359 4.39492987 4.39504719 4.39511027 4.3951297 4.39511027 4.39504719 4.39492987 4.39476359 4.39463482 4.19666732 4.19693051 4.19715954 4.19728538 4.19734282 4.1973591 4.19734282 4.19728538 4.19715954 4.19693051 4.19666732 4.0 4.0 4.0 4.0 4.0 4.0 4.0 4.0 4.0 4.0 4.0 6.0 6.0 6.0 6.0 6.0 6.0 6.0 6.0 6.0 6.0 6.0 5.79265823 5.79265863 5.79265965 5.79266089 5.79266188 5.79266225 5.79266188 5.79266089 5.79265965 5.79265863 5.79265823 5.58817231 5.58817325 5.58817567 5.58817857 5.58818086 5.58818171 5.58818086 5.58817857 5.58817567 5.58817325 5.58817231 5.38592386 5.38592572 5.38593043 5.38593598 5.3859403 5.38594191 5.3859403 5.38593598 5.38593043 5.38592572 5.38592386 5.18527545 5.18527899 5.18528775 5.1852978 5.18530543 5.18530824 5.18530543 5.1852978 5.18528775 5.18527899 5.18527545 4.98573782 4.98574464 4.98576074 4.9857784 4.98579134 4.98579602 4.98579134 4.9857784 4.98576074 4.98574464 4.98573782 4.78699668 4.78701011 4.78703943 4.78706942 4.78709028 4.78709762 4.78709028 4.78706942 4.78703942 4.78701011 4.78699668 4.58889148 4.58891852 4.58897037 4.58901826 4.5890492 4.58905966 4.5890492 4.58901826 4.58897037 4.58891852 4.58889148 4.39141164 4.39146507 4.39154895 4.39161605 4.39165526 4.39166785 4.39165526 4.39161605 4.39154895 4.39146507 4.39141164 4.1947956 4.19488209 4.194984 4.19505136 4.19508595 4.19509635 4.19508595 4.19505136 4.194984 4.19488209 4.1947956 4.0 4.0 4.0 4.0 4.0 4.0 4.0 4.0 4.0 4.0 4.0 6.0 6.0 6.0 6.0 6.0 6.0 6.0 6.0 6.0 6.0 6.0 5.99154961 5.99154922 5.99154837 5.99154757 5.9915471 5.99154695 5.9915471 5.99154757 5.99154837 5.99154922 5.99154961 5.87506782 5.87506572 5.87506105 5.87505646 5.87505348 5.87505249 5.87505348 5.87505646 5.87506105 5.87506572 5.87506782 5.7522654 5.75225665 5.75223757 5.75221905 5.75220711 5.75220313 5.75220711 5.75221905 5.75223757 5.75225665 5.7522654 5.6205469 5.62051381 5.62044445 5.62037959 5.62033897 5.62032568 5.62033897 5.62037959 5.62044445 5.62051381 5.6205469 5.47732366 5.47720523 5.47697077 5.47676287 5.4766381 5.47659826 5.4766381 5.47676287 5.47697077 5.47720523 5.47732366 5.32629302 5.32589068 5.32515252 5.32453983 5.32419119 5.32408325 5.32419119 5.32453983 5.32515252 5.32589068 5.32629302 5.17145301 5.17018082 5.16806385 5.16643996 5.1655716 5.16531233 5.1655716 5.16643996 5.16806385 5.17018082 5.17145301 5.00418239 5.00064054 4.9954223 4.99176696 4.98994312 4.98941995 4.98994312 4.99176696 4.9954223 5.00064054 5.00418239 4.74823195 4.74096266 4.73171241 4.72584815 4.72312647 4.7223771 4.72312647 4.72584815 4.73171241 4.74096266 4.74823195 4.0 4.0 4.0 4.0 4.0 4.0 4.0 4.0 4.0 4.0 4.0 6.0 6.0 6.0 6.0 6.0 6.0 6.0 6.0 6.0 6.0 6.0 5.85909885 5.85909817 5.85909656 5.85909485 5.85909366 5.85909324 5.85909366 5.85909485 5.85909656 5.85909817 5.85909885 5.69623444 5.69623173 5.69622543 5.69621882 5.69621425 5.69621266 5.69621425 5.69621882 5.69622543 5.69623173 5.69623444 5.56439934 5.56438969 5.56436776 5.56434542 5.56433032 5.56432514 5.56433032 5.56434542 5.56436776 5.56438969 5.56439934 5.43860298 5.43857036 5.43849878 5.43842852 5.43838255 5.43836709 5.43838255 5.43842852 5.43849878 5.43857036 5.43860298 5.30575686 5.3056518 5.30543155 5.30522516 5.30509533 5.30505268 5.30509533 5.30522516 5.30543155 5.3056518 5.30575686 5.16489351 5.16457516 5.16394538 5.16338675 5.16305104 5.16294369 5.16305104 5.16338675 5.16394538 5.16457516 5.16489351 5.01503463 5.01415296 5.01253085 5.01118046 5.01040963 5.01017046 5.01040963 5.01118046 5.01253085 5.01415296 5.01503463 4.83757697 4.83548586 4.83196508 4.8292355 4.82776212 4.82731958 4.82776212 4.8292355 4.83196508 4.83548586 4.83757697 4.56014838 4.55664338 4.55132622 4.54750537 4.54555671 4.54499 4.54555671 4.54750537 4.55132622 4.55664338 4.56014838 4.0 4.0 4.0 4.0 4.0 4.0 4.0 4.0 4.0 4.0 4.0 6.0 6.0 6.0 6.0 6.0 6.0 6.0 6.0 6.0 6.0 6.0 5.78950256 5.78950223 5.78950142 5.78950054 5.78949991 5.78949969 5.78949991 5.78950054 5.78950142 5.78950223 5.78950256 5.58651098 5.58650974 5.58650682 5.58650369 5.58650148 5.58650071 5.58650148 5.58650369 5.58650682 5.58650974 5.58651098 5.40218583 5.40218165 5.402172 5.40216195 5.40215503 5.40215263 5.40215503 5.40216195 5.402172 5.40218165 5.40218583 5.21908015 5.21906676 5.21903667 5.21900639 5.21898614 5.21897924 5.21898614 5.21900639 5.21903667 5.21906676 5.21908015 5.0295078 5.02946706 5.02937891 5.02929365 5.02923858 5.02922021 5.02923858 5.02929365 5.02937891 5.02946706 5.0295078 4.83309838 4.83298294 4.83274447 4.83252435 4.83238765 4.83234309 4.83238765 4.83252435 4.83274447 4.83298294 4.83309838 4.63032117 4.6300248 4.62944647 4.62893979 4.62863812 4.62854226 4.62863812 4.62893979 4.62944647 4.6300248 4.63032117 4.4166727 4.41602837 4.41485297 4.41388147 4.41333009 4.41315957 4.41333009 4.41388147 4.41485297 4.41602837 4.4166727 4.1850356 4.18406326 4.18241838 4.18113595 4.18043984 4.18022997 4.18043984 4.18113595 4.18241838 4.18406326 4.1850356 4.0 4.0 4.0 4.0 4.0 4.0 4.0 4.0 4.0 4.0 4.0 6.0 6.0 6.0 6.0 6.0 6.0 6.0 6.0 6.0 6.0 6.0 5.80761132 5.80761132 5.80761133 5.80761134 5.80761134 5.80761134 5.80761134 5.80761134 5.80761133 5.80761132 5.80761132 5.61396803 5.61396803 5.61396804 5.61396806 5.61396807 5.61396807 5.61396807 5.61396806 5.61396804 5.61396803 5.61396803 5.41877547 5.41877548 5.41877551 5.41877554 5.41877556 5.41877557 5.41877556 5.41877554 5.41877551 5.41877548 5.41877547 5.22181914 5.22181916 5.22181921 5.22181927 5.22181931 5.22181932 5.22181931 5.22181927 5.22181921 5.22181916 5.22181914 5.02296818 5.02296821 5.0229683 5.0229684 5.02296848 5.0229685 5.02296848 5.0229684 5.0229683 5.02296821 5.02296818 4.82216452 4.82216458 4.82216474 4.8221649 4.82216503 4.82216507 4.82216503 4.8221649 4.82216474 4.82216458 4.82216452 4.6194072 4.61940731 4.61940755 4.61940781 4.61940799 4.61940806 4.61940799 4.61940781 4.61940755 4.61940731 4.6194072 4.41473678 4.41473694 4.41473728 4.41473761 4.41473784 4.41473792 4.41473784 4.41473761 4.41473728 4.41473694 4.41473678 4.20822514 4.2082253 4.20822562 4.20822593 4.20822613 4.2082262 4.20822613 4.20822593 4.20822562 4.2082253 4.20822514 4.0 4.0 4.0 4.0 4.0 4.0 4.0 4.0 4.0 4.0 4.0 6.0 6.0 6.0 6.0 6.0 6.0 6.0 6.0 6.0 6.0 6.0 5.80941941 5.80941941 5.80941941 5.80941942 5.80941942 5.80941942 5.80941942 5.80941942 5.80941941 5.80941941 5.80941941 5.61706517 5.61706517 5.61706517 5.61706518 5.61706519 5.61706519 5.61706519 5.61706518 5.61706517 5.61706517 5.61706517 5.42247858 5.42247859 5.42247859 5.42247861 5.42247861 5.42247862 5.42247861 5.42247861 5.42247859 5.42247859 5.42247858 5.22553166 5.22553167 5.22553169 5.22553171 5.22553172 5.22553173 5.22553172 5.22553171 5.22553169 5.22553167 5.22553166 5.02626122 5.02626123 5.02626125 5.02626129 5.02626131 5.02626132 5.02626131 5.02626129 5.02626125 5.02626123 5.02626122 4.82478313 4.82478315 4.82478319 4.82478324 4.82478328 4.82478329 4.82478328 4.82478324 4.82478319 4.82478315 4.82478313 4.62124737 4.62124739 4.62124745 4.62124752 4.62124757 4.62124759 4.62124757 4.62124752 4.62124745 4.62124739 4.62124737 4.41581472 4.41581475 4.41581483 4.41581491 4.41581497 4.41581499 4.41581497 4.41581491 4.41581483 4.41581475 4.41581472 4.20865221 4.20865224 4.20865231 4.20865237 4.20865242 4.20865244 4.20865242 4.20865237 4.20865231 4.20865224 4.20865221 4.0 4.0 4.0 4.0 4.0 4.0 4.0 4.0 4.0 4.0 4.0 6.0 6.0 6.0 6.0 6.0 6.0 6.0 6.0 6.0 6.0 6.0 5.81600884 5.81600884 5.81600884 5.81600884 5.81600884 5.81600884 5.81600884 5.81600884 5.81600884 5.81600884 5.81600884 5.62573779 5.62573779 5.62573779 5.62573779 5.62573779 5.62573779 5.62573779 5.62573779 5.62573779 5.62573779 5.62573779 5.43093276 5.43093276 5.43093276 5.43093277 5.43093277 5.43093277 5.43093277 5.43093277 5.43093276 5.43093276 5.43093276 5.2326958 5.2326958 5.2326958 5.23269581 5.23269581 5.23269581 5.23269581 5.23269581 5.2326958 5.2326958 5.2326958 5.03176129 5.03176129 5.0317613 5.03176131 5.03176131 5.03176132 5.03176131 5.03176131 5.0317613 5.03176129 5.03176129 4.82864301 4.82864301 4.82864302 4.82864304 4.82864304 4.82864305 4.82864304 4.82864304 4.82864302 4.82864301 4.82864301 4.62370896 4.62370896 4.62370898 4.62370899 4.623709 4.62370901 4.623709 4.62370899 4.62370898 4.62370896 4.62370896 4.41721075 4.41721076 4.41721077 4.41721079 4.4172108 4.4172108 4.4172108 4.41721079 4.41721077 4.41721076 4.41721075 4.20927826 4.20927827 4.20927828 4.20927829 4.2092783 4.20927831 4.2092783 4.20927829 4.20927828 4.20927827 4.20927826 4.0 4.0 4.0 4.0 4.0 4.0 4.0 4.0 4.0 4.0 4.0 6.0 6.0 6.0 6.0 6.0 6.0 6.0 6.0 6.0 6.0 6.0 5.80554496 5.80554496 5.80554496 5.80554496 5.80554496 5.80554496 5.80554496 5.80554496 5.80554496 5.80554496 5.80554496 5.61084195 5.61084195 5.61084195 5.61084195 5.61084195 5.61084195 5.61084195 5.61084195 5.61084195 5.61084195 5.61084195 5.4145595 5.4145595 5.4145595 5.4145595 5.4145595 5.4145595 5.4145595 5.4145595 5.4145595 5.4145595 5.4145595 5.21631 5.21631 5.21631 5.21631 5.21631001 5.21631001 5.21631001 5.21631 5.21631 5.21631 5.21631 5.01613802 5.01613802 5.01613803 5.01613803 5.01613803 5.01613803 5.01613803 5.01613803 5.01613803 5.01613802 5.01613802 4.81429678 4.81429678 4.81429678 4.81429679 4.81429679 4.81429679 4.81429679 4.81429679 4.81429678 4.81429678 4.81429678 4.61116659 4.61116659 4.6111666 4.6111666 4.6111666 4.61116661 4.6111666 4.6111666 4.6111666 4.61116659 4.61116659 4.40725539 4.40725539 4.40725539 4.4072554 4.4072554 4.4072554 4.4072554 4.4072554 4.40725539 4.40725539 4.40725539 4.20326591 4.20326591 4.20326591 4.20326592 4.20326592 4.20326592 4.20326592 4.20326592 4.20326591 4.20326591 4.20326591 4.0 4.0 4.0 4.0 4.0 4.0 4.0 4.0 4.0 4.0 4.0
SCALARS diff_P double 1
LOOKUP_TABLE default