# vtk DataFile Version 2.0
PyFEHM VTK model output
ASCII
DATASET UNSTRUCTURED_GRID
POINTS 1331 double
0.0 0.0 0.0
1.0 0.0 0.0
2.0 0.0 0.0
3.0 0.0 0.0
4.0 0.0 0.0
5.0 0.0 0.0
6.0 0.0 0.0
7.0 0.0 0.0
8.0 0.0 0.0
9.0 0.0 0.0
10.0 0.0 0.0
0.0 1.0 0.0
1.0 1.0 0.0
2.0 1.0 0.0
3.0 1.0 0.0
4.0 1.0 0.0
5.0 1.0 0.0
6.0 1.0 0.0
7.0 1.0 0.0
8.0 1.0 0.0
9.0 1.0 0.0
10.0 1.0 0.0
0.0 2.0 0.0
1.0 2.0 0.0
2.0 2.0 0.0
3.0 2.0 0.0
4.0 2.0 0.0
5.0 2.0 0.0
6.0 2.0 0.0
7.0 2.0 0.0
8.0 2.0 0.0
9.0 2.0 0.0
10.0 2.0 0.0
0.0 3.0 0.0
1.0 3.0 0.0
2.0 3.0 0.0
3.0 3.0 0.0
4.0 3.0 0.0
5.0 3.0 0.0
6.0 3.0 0.0
7.0 3.0 0.0
8.0 3.0 0.0
9.0 3.0 0.0
10.0 3.0 0.0
0.0 4.0 0.0
1.0 4.0 0.0
2.0 4.0 0.0
3.0 4.0 0.0
4.0 4.0 0.0
5.0 4.0 0.0
6.0 4.0 0.0
7.0 4.0 0.0
8.0 4.0 0.0
9.0 4.0 0.0
10.0 4.0 0.0
0.0 5.0 0.0
1.0 5.0 0.0
2.0 5.0 0.0
3.0 5.0 0.0
4.0 5.0 0.0
5.0 5.0 0.0
6.0 5.0 0.0
7.0 5.0 0.0
8.0 5.0 0.0
9.0 5.0 0.0
10.0 5.0 0.0
0.0 6.0 0.0
1.0 6.0 0.0
2.0 6.0 0.0
3.0 6.0 0.0
4.0 6.0 0.0
5.0 6.0 0.0
6.0 6.0 0.0
7.0 6.0 0.0
8.0 6.0 0.0
9.0 6.0 0.0
10.0 6.0 0.0
0.0 7.0 0.0
1.0 7.0 0.0
2.0 7.0 0.0
3.0 7.0 0.0
4.0 7.0 0.0
5.0 7.0 0.0
6.0 7.0 0.0
7.0 7.0 0.0
8.0 7.0 0.0
9.0 7.0 0.0
10.0 7.0 0.0
0.0 8.0 0.0
1.0 8.0 0.0
2.0 8.0 0.0
3.0 8.0 0.0
4.0 8.0 0.0
5.0 8.0 0.0
6.0 8.0 0.0
7.0 8.0 0.0
8.0 8.0 0.0
9.0 8.0 0.0
10.0 8.0 0.0
0.0 9.0 0.0
1.0 9.0 0.0
2.0 9.0 0.0
3.0 9.0 0.0
4.0 9.0 0.0
5.0 9.0 0.0
6.0 9.0 0.0
7.0 9.0 0.0
8.0 9.0 0.0
9.0 9.0 0.0
10.0 9.0 0.0
0.0 10.0 0.0
1.0 10.0 0.0
2.0 10.0 0.0
3.0 10.0 0.0
4.0 10.0 0.0
5.0 10.0 0.0
6.0 10.0 0.0
7.0 10.0 0.0
8.0 10.0 0.0
9.0 10.0 0.0
10.0 10.0 0.0
0.0 0.0 1.0
1.0 0.0 1.0
2.0 0.0 1.0
3.0 0.0 1.0
4.0 0.0 1.0
5.0 0.0 1.0
6.0 0.0 1.0
7.0 0.0 1.0
8.0 0.0 1.0
9.0 0.0 1.0
10.0 0.0 1.0
0.0 1.0 1.0
1.0 1.0 1.0
2.0 1.0 1.0
3.0 1.0 1.0
4.0 1.0 1.0
5.0 1.0 1.0
6.0 1.0 1.0
7.0 1.0 1.0
8.0 1.0 1.0
9.0 1.0 1.0
10.0 1.0 1.0
0.0 2.0 1.0
1.0 2.0 1.0
2.0 2.0 1.0
3.0 2.0 1.0
4.0 2.0 1.0
5.0 2.0 1.0
6.0 2.0 1.0
7.0 2.0 1.0
8.0 2.0 1.0
9.0 2.0 1.0
10.0 2.0 1.0
0.0 3.0 1.0
1.0 3.0 1.0
2.0 3.0 1.0
3.0 3.0 1.0
4.0 3.0 1.0
5.0 3.0 1.0
6.0 3.0 1.0
7.0 3.0 1.0
8.0 3.0 1.0
9.0 3.0 1.0
10.0 3.0 1.0
0.0 4.0 1.0
1.0 4.0 1.0
2.0 4.0 1.0
3.0 4.0 1.0
4.0 4.0 1.0
5.0 4.0 1.0
6.0 4.0 1.0
7.0 4.0 1.0
8.0 4.0 1.0
9.0 4.0 1.0
10.0 4.0 1.0
0.0 5.0 1.0
1.0 5.0 1.0
2.0 5.0 1.0
3.0 5.0 1.0
4.0 5.0 1.0
5.0 5.0 1.0
6.0 5.0 1.0
7.0 5.0 1.0
8.0 5.0 1.0
9.0 5.0 1.0
10.0 5.0 1.0
0.0 6.0 1.0
1.0 6.0 1.0
2.0 6.0 1.0
3.0 6.0 1.0
4.0 6.0 1.0
5.0 6.0 1.0
6.0 6.0 1.0
7.0 6.0 1.0
8.0 6.0 1.0
9.0 6.0 1.0
10.0 6.0 1.0
0.0 7.0 1.0
1.0 7.0 1.0
2.0 7.0 1.0
3.0 7.0 1.0
4.0 7.0 1.0
5.0 7.0 1.0
6.0 7.0 1.0
7.0 7.0 1.0
8.0 7.0 1.0
9.0 7.0 1.0
10.0 7.0 1.0
0.0 8.0 1.0
1.0 8.0 1.0
2.0 8.0 1.0
3.0 8.0 1.0
4.0 8.0 1.0
5.0 8.0 1.0
6.0 8.0 1.0
7.0 8.0 1.0
8.0 8.0 1.0
9.0 8.0 1.0
10.0 8.0 1.0
0.0 9.0 1.0
1.0 9.0 1.0
2.0 9.0 1.0
3.0 9.0 1.0
4.0 9.0 1.0
5.0 9.0 1.0
6.0 9.0 1.0
7.0 9.0 1.0
8.0 9.0 1.0
9.0 9.0 1.0
10.0 9.0 1.0
0.0 10.0 1.0
1.0 10.0 1.0
2.0 10.0 1.0
3.0 10.0 1.0
4.0 10.0 1.0
5.0 10.0 1.0
6.0 10.0 1.0
7.0 10.0 1.0
8.0 10.0 1.0
9.0 10.0 1.0
10.0 10.0 1.0
0.0 0.0 2.0
1.0 0.0 2.0
2.0 0.0 2.0
3.0 0.0 2.0
4.0 0.0 2.0
5.0 0.0 2.0
6.0 0.0 2.0
7.0 0.0 2.0
8.0 0.0 2.0
9.0 0.0 2.0
10.0 0.0 2.0
0.0 1.0 2.0
1.0 1.0 2.0
2.0 1.0 2.0
3.0 1.0 2.0
4.0 1.0 2.0
5.0 1.0 2.0
6.0 1.0 2.0
7.0 1.0 2.0
8.0 1.0 2.0
9.0 1.0 2.0
10.0 1.0 2.0
0.0 2.0 2.0
1.0 2.0 2.0
2.0 2.0 2.0
3.0 2.0 2.0
4.0 2.0 2.0
5.0 2.0 2.0
6.0 2.0 2.0
7.0 2.0 2.0
8.0 2.0 2.0
9.0 2.0 2.0
10.0 2.0 2.0
0.0 3.0 2.0
1.0 3.0 2.0
2.0 3.0 2.0
3.0 3.0 2.0
4.0 3.0 2.0
5.0 3.0 2.0
6.0 3.0 2.0
7.0 3.0 2.0
8.0 3.0 2.0
9.0 3.0 2.0
10.0 3.0 2.0
0.0 4.0 2.0
1.0 4.0 2.0
2.0 4.0 2.0
3.0 4.0 2.0
4.0 4.0 2.0
5.0 4.0 2.0
6.0 4.0 2.0
7.0 4.0 2.0
8.0 4.0 2.0
9.0 4.0 2.0
10.0 4.0 2.0
0.0 5.0 2.0
1.0 5.0 2.0
2.0 5.0 2.0
3.0 5.0 2.0
4.0 5.0 2.0
5.0 5.0 2.0
6.0 5.0 2.0
7.0 5.0 2.0
8.0 5.0 2.0
9.0 5.0 2.0
10.0 5.0 2.0
0.0 6.0 2.0
1.0 6.0 2.0
2.0 6.0 2.0
3.0 6.0 2.0
4.0 6.0 2.0
5.0 6.0 2.0
6.0 6.0 2.0
7.0 6.0 2.0
8.0 6.0 2.0
9.0 6.0 2.0
10.0 6.0 2.0
0.0 7.0 2.0
1.0 7.0 2.0
2.0 7.0 2.0
3.0 7.0 2.0
4.0 7.0 2.0
5.0 7.0 2.0
6.0 7.0 2.0
7.0 7.0 2.0
8.0 7.0 2.0
9.0 7.0 2.0
10.0 7.0 2.0
0.0 8.0 2.0
1.0 8.0 2.0
2.0 8.0 2.0
3.0 8.0 2.0
4.0 8.0 2.0
5.0 8.0 2.0
6.0 8.0 2.0
7.0 8.0 2.0
8.0 8.0 2.0
9.0 8.0 2.0
10.0 8.0 2.0
0.0 9.0 2.0
1.0 9.0 2.0
2.0 9.0 2.0
3.0 9.0 2.0
4.0 9.0 2.0
5.0 9.0 2.0
6.0 9.0 2.0
7.0 9.0 2.0
8.0 9.0 2.0
9.0 9.0 2.0
10.0 9.0 2.0
0.0 10.0 2.0
1.0 10.0 2.0
2.0 10.0 2.0
3.0 10.0 2.0
4.0 10.0 2.0
5.0 10.0 2.0
6.0 10.0 2.0
7.0 10.0 2.0
8.0 10.0 2.0
9.0 10.0 2.0
10.0 10.0 2.0
0.0 0.0 3.0
1.0 0.0 3.0
2.0 0.0 3.0
3.0 0.0 3.0
4.0 0.0 3.0
5.0 0.0 3.0
6.0 0.0 3.0
7.0 0.0 3.0
8.0 0.0 3.0
9.0 0.0 3.0
10.0 0.0 3.0
0.0 1.0 3.0
1.0 1.0 3.0
2.0 1.0 3.0
3.0 1.0 3.0
4.0 1.0 3.0
5.0 1.0 3.0
6.0 1.0 3.0
7.0 1.0 3.0
8.0 1.0 3.0
9.0 1.0 3.0
10.0 1.0 3.0
0.0 2.0 3.0
1.0 2.0 3.0
2.0 2.0 3.0
3.0 2.0 3.0
4.0 2.0 3.0
5.0 2.0 3.0
6.0 2.0 3.0
7.0 2.0 3.0
8.0 2.0 3.0
9.0 2.0 3.0
10.0 2.0 3.0
0.0 3.0 3.0
1.0 3.0 3.0
2.0 3.0 3.0
3.0 3.0 3.0
4.0 3.0 3.0
5.0 3.0 3.0
6.0 3.0 3.0
7.0 3.0 3.0
8.0 3.0 3.0
9.0 3.0 3.0
10.0 3.0 3.0
0.0 4.0 3.0
1.0 4.0 3.0
2.0 4.0 3.0
3.0 4.0 3.0
4.0 4.0 3.0
5.0 4.0 3.0
6.0 4.0 3.0
7.0 4.0 3.0
8.0 4.0 3.0
9.0 4.0 3.0
10.0 4.0 3.0
0.0 5.0 3.0
1.0 5.0 3.0
2.0 5.0 3.0
3.0 5.0 3.0
4.0 5.0 3.0
5.0 5.0 3.0
6.0 5.0 3.0
7.0 5.0 3.0
8.0 5.0 3.0
9.0 5.0 3.0
10.0 5.0 3.0
0.0 6.0 3.0
1.0 6.0 3.0
2.0 6.0 3.0
3.0 6.0 3.0
4.0 6.0 3.0
5.0 6.0 3.0
6.0 6.0 3.0
7.0 6.0 3.0
8.0 6.0 3.0
9.0 6.0 3.0
10.0 6.0 3.0
0.0 7.0 3.0
1.0 7.0 3.0
2.0 7.0 3.0
3.0 7.0 3.0
4.0 7.0 3.0
5.0 7.0 3.0
6.0 7.0 3.0
7.0 7.0 3.0
8.0 7.0 3.0
9.0 7.0 3.0
10.0 7.0 3.0
0.0 8.0 3.0
1.0 8.0 3.0
2.0 8.0 3.0
3.0 8.0 3.0
4.0 8.0 3.0
5.0 8.0 3.0
6.0 8.0 3.0
7.0 8.0 3.0
8.0 8.0 3.0
9.0 8.0 3.0
10.0 8.0 3.0
0.0 9.0 3.0
1.0 9.0 3.0
2.0 9.0 3.0
3.0 9.0 3.0
4.0 9.0 3.0
5.0 9.0 3.0
6.0 9.0 3.0
7.0 9.0 3.0
8.0 9.0 3.0
9.0 9.0 3.0
10.0 9.0 3.0
0.0 10.0 3.0
1.0 10.0 3.0
2.0 10.0 3.0
3.0 10.0 3.0
4.0 10.0 3.0
5.0 10.0 3.0
6.0 10.0 3.0
7.0 10.0 3.0
8.0 10.0 3.0
9.0 10.0 3.0
10.0 10.0 3.0
0.0 0.0 4.0
1.0 0.0 4.0
2.0 0.0 4.0
3.0 0.0 4.0
4.0 0.0 4.0
5.0 0.0 4.0
6.0 0.0 4.0
7.0 0.0 4.0
8.0 0.0 4.0
9.0 0.0 4.0
10.0 0.0 4.0
0.0 1.0 4.0
1.0 1.0 4.0
2.0 1.0 4.0
3.0 1.0 4.0
4.0 1.0 4.0
5.0 1.0 4.0
6.0 1.0 4.0
7.0 1.0 4.0
8.0 1.0 4.0
9.0 1.0 4.0
10.0 1.0 4.0
0.0 2.0 4.0
1.0 2.0 4.0
2.0 2.0 4.0
3.0 2.0 4.0
4.0 2.0 4.0
5.0 2.0 4.0
6.0 2.0 4.0
7.0 2.0 4.0
8.0 2.0 4.0
9.0 2.0 4.0
10.0 2.0 4.0
0.0 3.0 4.0
1.0 3.0 4.0
2.0 3.0 4.0
3.0 3.0 4.0
4.0 3.0 4.0
5.0 3.0 4.0
6.0 3.0 4.0
7.0 3.0 4.0
8.0 3.0 4.0
9.0 3.0 4.0
10.0 3.0 4.0
0.0 4.0 4.0
1.0 4.0 4.0
2.0 4.0 4.0
3.0 4.0 4.0
4.0 4.0 4.0
5.0 4.0 4.0
6.0 4.0 4.0
7.0 4.0 4.0
8.0 4.0 4.0
9.0 4.0 4.0
10.0 4.0 4.0
0.0 5.0 4.0
1.0 5.0 4.0
2.0 5.0 4.0
3.0 5.0 4.0
4.0 5.0 4.0
5.0 5.0 4.0
6.0 5.0 4.0
7.0 5.0 4.0
8.0 5.0 4.0
9.0 5.0 4.0
10.0 5.0 4.0
0.0 6.0 4.0
1.0 6.0 4.0
2.0 6.0 4.0
3.0 6.0 4.0
4.0 6.0 4.0
5.0 6.0 4.0
6.0 6.0 4.0
7.0 6.0 4.0
8.0 6.0 4.0
9.0 6.0 4.0
10.0 6.0 4.0
0.0 7.0 4.0
1.0 7.0 4.0
2.0 7.0 4.0
3.0 7.0 4.0
4.0 7.0 4.0
5.0 7.0 4.0
6.0 7.0 4.0
7.0 7.0 4.0
8.0 7.0 4.0
9.0 7.0 4.0
10.0 7.0 4.0
0.0 8.0 4.0
1.0 8.0 4.0
2.0 8.0 4.0
3.0 8.0 4.0
4.0 8.0 4.0
5.0 8.0 4.0
6.0 8.0 4.0
7.0 8.0 4.0
8.0 8.0 4.0
9.0 8.0 4.0
10.0 8.0 4.0
0.0 9.0 4.0
1.0 9.0 4.0
2.0 9.0 4.0
3.0 9.0 4.0
4.0 9.0 4.0
5.0 9.0 4.0
6.0 9.0 4.0
7.0 9.0 4.0
8.0 9.0 4.0
9.0 9.0 4.0
10.0 9.0 4.0
0.0 10.0 4.0
1.0 10.0 4.0
2.0 10.0 4.0
3.0 10.0 4.0
4.0 10.0 4.0
5.0 10.0 4.0
6.0 10.0 4.0
7.0 10.0 4.0
8.0 10.0 4.0
9.0 10.0 4.0
10.0 10.0 4.0
0.0 0.0 5.0
1.0 0.0 5.0
2.0 0.0 5.0
3.0 0.0 5.0
4.0 0.0 5.0
5.0 0.0 5.0
6.0 0.0 5.0
7.0 0.0 5.0
8.0 0.0 5.0
9.0 0.0 5.0
10.0 0.0 5.0
0.0 1.0 5.0
1.0 1.0 5.0
2.0 1.0 5.0
3.0 1.0 5.0
4.0 1.0 5.0
5.0 1.0 5.0
6.0 1.0 5.0
7.0 1.0 5.0
8.0 1.0 5.0
9.0 1.0 5.0
10.0 1.0 5.0
0.0 2.0 5.0
1.0 2.0 5.0
2.0 2.0 5.0
3.0 2.0 5.0
4.0 2.0 5.0
5.0 2.0 5.0
6.0 2.0 5.0
7.0 2.0 5.0
8.0 2.0 5.0
9.0 2.0 5.0
10.0 2.0 5.0
0.0 3.0 5.0
1.0 3.0 5.0
2.0 3.0 5.0
3.0 3.0 5.0
4.0 3.0 5.0
5.0 3.0 5.0
6.0 3.0 5.0
7.0 3.0 5.0
8.0 3.0 5.0
9.0 3.0 5.0
10.0 3.0 5.0
0.0 4.0 5.0
1.0 4.0 5.0
2.0 4.0 5.0
3.0 4.0 5.0
4.0 4.0 5.0
5.0 4.0 5.0
6.0 4.0 5.0
7.0 4.0 5.0
8.0 4.0 5.0
9.0 4.0 5.0
10.0 4.0 5.0
0.0 5.0 5.0
1.0 5.0 5.0
2.0 5.0 5.0
3.0 5.0 5.0
4.0 5.0 5.0
5.0 5.0 5.0
6.0 5.0 5.0
7.0 5.0 5.0
8.0 5.0 5.0
9.0 5.0 5.0
10.0 5.0 5.0
0.0 6.0 5.0
1.0 6.0 5.0
2.0 6.0 5.0
3.0 6.0 5.0
4.0 6.0 5.0
5.0 6.0 5.0
6.0 6.0 5.0
7.0 6.0 5.0
8.0 6.0 5.0
9.0 6.0 5.0
10.0 6.0 5.0
0.0 7.0 5.0
1.0 7.0 5.0
2.0 7.0 5.0
3.0 7.0 5.0
4.0 7.0 5.0
5.0 7.0 5.0
6.0 7.0 5.0
7.0 7.0 5.0
8.0 7.0 5.0
9.0 7.0 5.0
10.0 7.0 5.0
0.0 8.0 5.0
1.0 8.0 5.0
2.0 8.0 5.0
3.0 8.0 5.0
4.0 8.0 5.0
5.0 8.0 5.0
6.0 8.0 5.0
7.0 8.0 5.0
8.0 8.0 5.0
9.0 8.0 5.0
10.0 8.0 5.0
0.0 9.0 5.0
1.0 9.0 5.0
2.0 9.0 5.0
3.0 9.0 5.0
4.0 9.0 5.0
5.0 9.0 5.0
6.0 9.0 5.0
7.0 9.0 5.0
8.0 9.0 5.0
9.0 9.0 5.0
10.0 9.0 5.0
0.0 10.0 5.0
1.0 10.0 5.0
2.0 10.0 5.0
3.0 10.0 5.0
4.0 10.0 5.0
5.0 10.0 5.0
6.0 10.0 5.0
7.0 10.0 5.0
8.0 10.0 5.0
9.0 10.0 5.0
10.0 10.0 5.0
0.0 0.0 6.0
1.0 0.0 6.0
2.0 0.0 6.0
3.0 0.0 6.0
4.0 0.0 6.0
5.0 0.0 6.0
6.0 0.0 6.0
7.0 0.0 6.0
8.0 0.0 6.0
9.0 0.0 6.0
10.0 0.0 6.0
0.0 1.0 6.0
1.0 1.0 6.0
2.0 1.0 6.0
3.0 1.0 6.0
4.0 1.0 6.0
5.0 1.0 6.0
6.0 1.0 6.0
7.0 1.0 6.0
8.0 1.0 6.0
9.0 1.0 6.0
10.0 1.0 6.0
0.0 2.0 6.0
1.0 2.0 6.0
2.0 2.0 6.0
3.0 2.0 6.0
4.0 2.0 6.0
5.0 2.0 6.0
6.0 2.0 6.0
7.0 2.0 6.0
8.0 2.0 6.0
9.0 2.0 6.0
10.0 2.0 6.0
0.0 3.0 6.0
1.0 3.0 6.0
2.0 3.0 6.0
3.0 3.0 6.0
4.0 3.0 6.0
5.0 3.0 6.0
6.0 3.0 6.0
7.0 3.0 6.0
8.0 3.0 6.0
9.0 3.0 6.0
10.0 3.0 6.0
0.0 4.0 6.0
1.0 4.0 6.0
2.0 4.0 6.0
3.0 4.0 6.0
4.0 4.0 6.0
5.0 4.0 6.0
6.0 4.0 6.0
7.0 4.0 6.0
8.0 4.0 6.0
9.0 4.0 6.0
10.0 4.0 6.0
0.0 5.0 6.0
1.0 5.0 6.0
2.0 5.0 6.0
3.0 5.0 6.0
4.0 5.0 6.0
5.0 5.0 6.0
6.0 5.0 6.0
7.0 5.0 6.0
8.0 5.0 6.0
9.0 5.0 6.0
10.0 5.0 6.0
0.0 6.0 6.0
1.0 6.0 6.0
2.0 6.0 6.0
3.0 6.0 6.0
4.0 6.0 6.0
5.0 6.0 6.0
6.0 6.0 6.0
7.0 6.0 6.0
8.0 6.0 6.0
9.0 6.0 6.0
10.0 6.0 6.0
0.0 7.0 6.0
1.0 7.0 6.0
2.0 7.0 6.0
3.0 7.0 6.0
4.0 7.0 6.0
5.0 7.0 6.0
6.0 7.0 6.0
7.0 7.0 6.0
8.0 7.0 6.0
9.0 7.0 6.0
[...]
POINT_DATA 1331
SCALARS P double 1
LOOKUP_TABLE default
6.0 6.0 6.0 6.0 6.0 6.0 6.0 6.0 6.0 6.0 6.0 5.79981047 5.79981088 5.79981195 5.79981325 5.79981429 5.79981468 5.79981429 5.79981325 5.79981195 5.79981088 5.79981047 5.59955093 5.59955188 5.59955434 5.59955731 5.59955966 5.59956054 5.59955966 5.59955731 5.59955434 5.59955188 5.59955093 5.39967707 5.39967884 5.39968337 5.39968877 5.39969301 5.3996946 5.39969301 5.39968877 5.39968337 5.39967884 5.39967707 5.20017327 5.20017637 5.20018415 5.20019325 5.20020028 5.20020289 5.20020028 5.20019325 5.20018415 5.20017637 5.20017327 5.0008726 5.00087786 5.00089067 5.00090519 5.00091612 5.00092013 5.00091612 5.00090519 5.00089067 5.00087786 5.0008726 4.80157133 4.80158004 4.80160026 4.80162217 4.8016381 4.80164384 4.8016381 4.80162217 4.80160026 4.80158004 4.80157133 4.60207283 4.60208688 4.60211679 4.602147 4.60216789 4.60217522 4.60216789 4.602147 4.60211679 4.60208688 4.60207283 4.40216548 4.40218634 4.40222483 4.40225999 4.40228274 4.40229046 4.40228274 4.40225999 4.40222483 4.40218634 4.40216548 4.20159608 4.20161912 4.20165362 4.20168131 4.20169786 4.20170326 4.20169786 4.20168131 4.20165362 4.20161912 4.20159608 4.0 4.0 4.0 4.0 4.0 4.0 4.0 4.0 4.0 4.0 4.0 6.0 6.0 6.0 6.0 6.0 6.0 6.0 6.0 6.0 6.0 6.0 5.7906512 5.79065185 5.79065352 5.79065554 5.79065714 5.79065774 5.79065714 5.79065554 5.79065352 5.79065185 5.7906512 5.58806225 5.58806382 5.58806781 5.58807255 5.58807627 5.58807766 5.58807627 5.58807255 5.58806781 5.58806382 5.58806225 5.38826051 5.38826371 5.38827172 5.38828104 5.3882882 5.38829086 5.3882882 5.38828104 5.38827172 5.38826371 5.38826051 5.18957937 5.18958587 5.18960154 5.1896191 5.18963219 5.18963697 5.18963219 5.1896191 5.18960154 5.18958587 5.18957937 4.99127661 4.99129028 4.99132113 4.99135368 4.99137684 4.99138509 4.99137684 4.99135368 4.99132113 4.99129028 4.99127661 4.79300808 4.79303865 4.79309999 4.79315883 4.79319796 4.7932114 4.79319796 4.79315883 4.79309998 4.79303865 4.79300808 4.59460221 4.59467542 4.59479644 4.59489746 4.59495843 4.59497836 4.59495843 4.59489746 4.59479644 4.59467542 4.59460221 4.39598953 4.3961712 4.39639503 4.39654856 4.39662975 4.39665455 4.39662975 4.39654856 4.39639503 4.3961712 4.39598953 4.1973146 4.19770721 4.19802575 4.19819319 4.19826761 4.19828845 4.19826761 4.19819319 4.19802575 4.19770721 4.1973146 4.0 4.0 4.0 4.0 4.0 4.0 4.0 4.0 4.0 4.0 4.0 6.0 6.0 6.0 6.0 6.0 6.0 6.0 6.0 6.0 6.0 6.0 5.7905906 5.79059132 5.79059318 5.79059543 5.7905972 5.79059787 5.7905972 5.79059543 5.79059318 5.79059132 5.7905906 5.58604013 5.58604188 5.58604635 5.58605167 5.58605585 5.58605741 5.58605585 5.58605167 5.58604635 5.58604188 5.58604013 5.38459617 5.38459975 5.38460873 5.38461921 5.38462727 5.38463027 5.38462727 5.38461921 5.38460873 5.38459975 5.38459617 5.18496663 5.18497383 5.18499129 5.18501098 5.18502571 5.18503109 5.18502571 5.18501098 5.18499129 5.18497383 5.18496663 4.98633701 4.98635185 4.98638577 4.98642194 4.98644789 4.98645716 4.98644789 4.98642194 4.98638577 4.98635185 4.98633701 4.78823372 4.78826574 4.78833175 4.78839637 4.78843991 4.78845497 4.78843991 4.78839637 4.78833175 4.78826574 4.78823372 4.59040393 4.59047673 4.59060304 4.59071203 4.59077926 4.59080148 4.59077926 4.59071203 4.59060304 4.59047673 4.59040393 4.39276203 4.39293069 4.39315462 4.39331632 4.3934048 4.39343231 4.3934048 4.39331632 4.39315462 4.39293069 4.39276203 4.19550953 4.19584567 4.19614772 4.19631882 4.1963989 4.19642191 4.1963989 4.19631882 4.19614772 4.19584567 4.19550953 4.0 4.0 4.0 4.0 4.0 4.0 4.0 4.0 4.0 4.0 4.0 6.0 6.0 6.0 6.0 6.0 6.0 6.0 6.0 6.0 6.0 6.0 5.79101584 5.79101644 5.79101799 5.79101987 5.79102136 5.79102192 5.79102136 5.79101987 5.79101799 5.79101644 5.79101584 5.5854343 5.58543573 5.58543939 5.58544379 5.58544725 5.58544856 5.58544725 5.58544379 5.58543939 5.58543573 5.5854343 5.38259791 5.38260072 5.38260785 5.38261629 5.38262284 5.38262529 5.38262284 5.38261629 5.38260785 5.38260072 5.38259791 5.18177753 5.18178289 5.18179616 5.18181143 5.18182305 5.18182733 5.18182305 5.18181143 5.18179616 5.18178289 5.18177753 4.98237068 4.98238094 4.98240528 4.98243212 4.98245185 4.982459 4.98245185 4.98243212 4.98240528 4.98238094 4.98237068 4.78395964 4.78397959 4.78402363 4.78406911 4.78410095 4.78411219 4.78410095 4.78406911 4.78402363 4.78397959 4.78395964 4.58631043 4.58634979 4.58642679 4.58649904 4.58654624 4.58656229 4.58654624 4.58649904 4.58642679 4.58634979 4.58631043 4.38938918 4.38946476 4.38958723 4.38968765 4.38974739 4.38976675 4.38974739 4.38968765 4.38958723 4.38946476 4.38938918 4.19351355 4.19363198 4.19377772 4.19387757 4.19393023 4.19394629 4.19393023 4.19387757 4.19377772 4.19363198 4.19351355 4.0 4.0 4.0 4.0 4.0 4.0 4.0 4.0 4.0 4.0 4.0 6.0 6.0 6.0 6.0 6.0 6.0 6.0 6.0 6.0 6.0 6.0 6.0747377 6.07473639 6.0747333 6.07473003 6.07472776 6.07472697 6.07472776 6.07473003 6.0747333 6.07473639 6.0747377 5.9931535 5.99314806 5.9931353 5.99312185 5.9931125 5.99310924 5.9931125 5.99312185 5.9931353 5.99314806 5.9931535 5.88156327 5.88154374 5.88149895 5.88145272 5.88142111 5.8814102 5.88142111 5.88145272 5.88149895 5.88154374 5.88156327 5.75218603 5.75212074 5.75197588 5.75183145 5.75173546 5.75170286 5.75173546 5.75183145 5.75197588 5.75212074 5.75218603 5.6061733 5.6059658 5.60552633 5.60510767 5.60483964 5.60475056 5.60483964 5.60510767 5.60552633 5.6059658 5.6061733 5.44885948 5.44823381 5.44698887 5.4458682 5.44518277 5.44496084 5.44518277 5.4458682 5.44698887 5.44823381 5.44885948 5.28651912 5.28476466 5.2815492 5.27884548 5.27727756 5.27678506 5.27727756 5.27884548 5.2815492 5.28476466 5.28651912 5.11156605 5.10723051 5.10008311 5.09453227 5.09149925 5.09057786 5.09149925 5.09453227 5.10008311 5.10723051 5.11156605 4.83709791 4.82916887 4.81771591 4.80957392 4.80539374 4.80416632 4.80539374 4.80957392 4.81771591 4.82916887 4.83709791 4.0 4.0 4.0 4.0 4.0 4.0 4.0 4.0 4.0 4.0 4.0 6.0 6.0 6.0 6.0 6.0 6.0 6.0 6.0 6.0 6.0 6.0 6.01364998 6.01364792 6.0136429 6.01363733 6.01363327 6.01363182 6.01363327 6.01363733 6.0136429 6.01364792 6.01364998 5.90886634 5.90885901 5.90884141 5.9088222 5.9088084 5.9088035 5.9088084 5.9088222 5.90884141 5.90885901 5.90886634 5.78885203 5.78882842 5.78877285 5.78871367 5.78867202 5.78865739 5.78867202 5.78871367 5.78877285 5.78882842 5.78885203 5.65746704 5.65739476 5.65722923 5.65705837 5.65694135 5.65690089 5.65694135 5.65705837 5.65722923 5.65739476 5.65746704 5.51031651 5.51010629 5.50964172 5.50918021 5.50887428 5.50877051 5.50887428 5.50918021 5.50964172 5.51010629 5.51031652 5.34957529 5.3490019 5.34779181 5.3466434 5.34591055 5.34566741 5.34591055 5.3466434 5.34779181 5.3490019 5.34957529 5.17724988 5.17582537 5.17299001 5.17043866 5.16887909 5.16837431 5.16887909 5.17043866 5.17299001 5.17582537 5.17724988 4.97709499 4.97407142 4.96847732 4.96373734 4.96097206 4.96010046 4.96097206 4.96373734 4.96847732 4.97407142 4.97709499 4.66894906 4.66441673 4.65673673 4.65063501 4.6472394 4.64619669 4.6472394 4.65063501 4.65673673 4.66441673 4.66894906 4.0 4.0 4.0 4.0 4.0 4.0 4.0 4.0 4.0 4.0 4.0 6.0 6.0 6.0 6.0 6.0 6.0 6.0 6.0 6.0 6.0 6.0 5.87583759 5.87583657 5.87583405 5.87583122 5.87582913 5.87582838 5.87582913 5.87583122 5.87583405 5.87583657 5.87583759 5.70484617 5.70484272 5.70483434 5.70482508 5.70481834 5.70481593 5.70481834 5.70482508 5.70483434 5.70484272 5.70484617 5.52851332 5.52850265 5.52847721 5.52844972 5.52843012 5.52842319 5.52843012 5.52844972 5.52847721 5.52850265 5.52851332 5.34507039 5.34503903 5.34496601 5.34488926 5.34483585 5.34481722 5.34483585 5.34488926 5.34496601 5.34503903 5.34507039 5.15106825 5.15098112 5.15078414 5.15058381 5.15044838 5.15040192 5.15044838 5.15058381 5.15078414 5.15098112 5.15106825 4.9472009 4.94697571 4.946485 4.94600487 4.94569078 4.94558508 4.94569078 4.94600487 4.946485 4.94697571 4.9472009 4.73508004 4.73455522 4.73346232 4.732439 4.73179336 4.73158061 4.73179336 4.732439 4.73346232 4.73455522 4.73508004 4.51188795 4.51085609 4.50882113 4.50700526 4.50590281 4.5055474 4.50590281 4.50700526 4.50882113 4.51085609 4.51188795 4.26672775 4.26531629 4.26269816 4.26047221 4.25916918 4.25875755 4.25916918 4.26047221 4.26269816 4.26531629 4.26672775 4.0 4.0 4.0 4.0 4.0 4.0 4.0 4.0 4.0 4.0 4.0 6.0 6.0 6.0 6.0 6.0 6.0 6.0 6.0 6.0 6.0 6.0 5.80778881 5.80778881 5.80778882 5.80778884 5.80778885 5.80778886 5.80778885 5.80778884 5.80778882 5.80778881 5.80778881 5.61433451 5.61433453 5.61433456 5.6143346 5.61433462 5.61433464 5.61433462 5.6143346 5.61433456 5.61433453 5.61433451 5.41932965 5.41932968 5.41932974 5.41932981 5.41932987 5.41932989 5.41932987 5.41932981 5.41932974 5.41932968 5.41932965 5.22254347 5.22254351 5.22254363 5.22254376 5.22254387 5.22254391 5.22254387 5.22254376 5.22254363 5.22254351 5.22254347 5.02382383 5.02382391 5.02382412 5.02382436 5.02382454 5.0238246 5.02382454 5.02382436 5.02382412 5.02382391 5.02382383 4.82308663 4.82308677 4.82308712 4.82308752 4.82308781 4.82308792 4.82308781 4.82308752 4.82308712 4.82308677 4.82308663 4.62030188 4.62030211 4.62030266 4.62030325 4.62030368 4.62030383 4.62030368 4.62030325 4.62030266 4.62030211 4.62030188 4.4154813 4.41548163 4.41548236 4.41548312 4.41548365 4.41548384 4.41548365 4.41548312 4.41548236 4.41548163 4.4154813 4.20867323 4.20867355 4.20867424 4.20867492 4.20867537 4.20867552 4.20867537 4.20867492 4.20867424 4.20867355 4.20867323 4.0 4.0 4.0 4.0 4.0 4.0 4.0 4.0 4.0 4.0 4.0 6.0 6.0 6.0 6.0 6.0 6.0 6.0 6.0 6.0 6.0 6.0 5.80966277 5.80966277 5.80966278 5.80966278 5.80966279 5.80966279 5.80966279 5.80966278 5.80966278 5.80966277 5.80966277 5.61754982 5.61754983 5.61754984 5.61754985 5.61754986 5.61754987 5.61754986 5.61754985 5.61754984 5.61754983 5.61754982 5.42319574 5.42319575 5.42319577 5.4231958 5.42319582 5.42319583 5.42319582 5.4231958 5.42319577 5.42319575 5.42319574 5.2264583 5.22645832 5.22645836 5.2264584 5.22645844 5.22645846 5.22645844 5.2264584 5.22645836 5.22645832 5.2264583 5.02735181 5.02735183 5.0273519 5.02735198 5.02735204 5.02735206 5.02735204 5.02735198 5.0273519 5.02735183 5.02735181 4.82596168 4.82596172 4.82596182 4.82596194 4.82596203 4.82596206 4.82596203 4.82596194 4.82596182 4.82596172 4.82596168 4.62240085 4.62240091 4.62240105 4.62240121 4.62240134 4.62240138 4.62240134 4.62240121 4.62240105 4.62240091 4.62240085 4.41678876 4.41678884 4.41678901 4.41678921 4.41678935 4.4167894 4.41678935 4.41678921 4.41678901 4.41678884 4.41678876 4.20925069 4.20925075 4.20925091 4.20925107 4.20925118 4.20925122 4.20925118 4.20925107 4.20925091 4.20925075 4.20925069 4.0 4.0 4.0 4.0 4.0 4.0 4.0 4.0 4.0 4.0 4.0 6.0 6.0 6.0 6.0 6.0 6.0 6.0 6.0 6.0 6.0 6.0 5.8162799 5.8162799 5.8162799 5.81627991 5.81627991 5.81627991 5.81627991 5.81627991 5.8162799 5.8162799 5.8162799 5.62627485 5.62627485 5.62627485 5.62627486 5.62627486 5.62627486 5.62627486 5.62627486 5.62627485 5.62627485 5.62627485 5.43172278 5.43172278 5.43172279 5.4317228 5.4317228 5.43172281 5.4317228 5.4317228 5.43172279 5.43172278 5.43172278 5.23370968 5.23370968 5.23370969 5.23370971 5.23370972 5.23370972 5.23370972 5.23370971 5.23370969 5.23370968 5.23370968 5.03294536 5.03294537 5.03294538 5.0329454 5.03294542 5.03294543 5.03294542 5.0329454 5.03294538 5.03294537 5.03294536 4.82991163 4.82991164 4.82991166 4.82991169 4.82991171 4.82991172 4.82991171 4.82991169 4.82991166 4.82991164 4.82991163 4.62493939 4.6249394 4.62493943 4.62493947 4.6249395 4.62493951 4.6249395 4.62493947 4.62493943 4.6249394 4.62493939 4.41824074 4.41824076 4.41824079 4.41824084 4.41824087 4.41824088 4.41824087 4.41824084 4.41824079 4.41824076 4.41824074 4.20990796 4.20990797 4.209908 4.20990804 4.20990806 4.20990807 4.20990806 4.20990804 4.209908 4.20990797 4.20990796 4.0 4.0 4.0 4.0 4.0 4.0 4.0 4.0 4.0 4.0 4.0 6.0 6.0 6.0 6.0 6.0 6.0 6.0 6.0 6.0 6.0 6.0 5.80577669 5.80577669 5.80577669 5.80577669 5.80577669 5.80577669 5.80577669 5.80577669 5.80577669 5.80577669 5.80577669 5.61129318 5.61129318 5.61129319 5.61129319 5.61129319 5.61129319 5.61129319 5.61129319 5.61129319 5.61129318 5.61129318 5.41520494 5.41520494 5.41520495 5.41520495 5.41520496 5.41520496 5.41520496 5.41520495 5.41520495 5.41520494 5.41520494 5.21710861 5.21710861 5.21710862 5.21710862 5.21710863 5.21710863 5.21710863 5.21710862 5.21710862 5.21710861 5.21710861 5.01703041 5.01703041 5.01703042 5.01703043 5.01703043 5.01703043 5.01703043 5.01703043 5.01703042 5.01703041 5.01703041 4.81520421 4.81520421 4.81520422 4.81520423 4.81520424 4.81520425 4.81520424 4.81520423 4.81520422 4.81520421 4.81520421 4.61199312 4.61199312 4.61199313 4.61199314 4.61199315 4.61199315 4.61199315 4.61199314 4.61199313 4.61199312 4.61199312 4.40789451 4.40789451 4.40789452 4.40789453 4.40789454 4.40789454 4.40789454 4.40789453 4.40789452 4.40789451 4.40789451 4.20361364 4.20361364 4.20361365 4.20361365 4.20361366 4.20361366 4.20361366 4.20361365 4.20361365 4.20361364 4.20361364 4.0 4.0 4.0 4.0 4.0 4.0 4.0 4.0 4.0 4.0 4.0
SCALARS diff_P double 1
LOOKUP_TABLE default