TITLE = "FEHM V3.00pgi64 10-10-28 QA:NA  10/28/2010  14:01:29"
variables = "Saturation" "Liquid" "Vapor" "Capillary pressure"
text X=50.0 Y=95.0 AN=center T="Relative permeability and Capillary pressure"
text X=50.0 Y=90.0 AN=center T="** Lysimeter 2m grid Case 4 = case3 with diff hydro props"
zone t = "model    1"
  0.00000000       0.00000000       1.00000000       73400.9691    
 0.100000000E-01  0.148290979E-24   1.00000000       69435.0416    
 0.200000000E-01  0.179251209E-24   1.00000000       65469.1141    
 0.300000000E-01  0.219280835E-24   1.00000000       61503.1865    
 0.400000000E-01  0.271867614E-24   1.00000000       57537.2590    
 0.500000000E-01  0.342278486E-24   1.00000000       53571.3315    
 0.600000000E-01  0.438635582E-24   1.00000000       49605.4040    
 0.700000000E-01  0.573873014E-24   1.00000000       45639.4764    
 0.800000000E-01  0.769373523E-24   1.00000000       41673.5489    
 0.900000000E-01  0.106220751E-23   1.00000000       37707.6214    
 0.100000000      0.152002763E-23   1.00000000       33741.6939    
 0.110000000      0.227497013E-23   1.00000000       29775.7664    
 0.120000000      0.360726761E-23   1.00000000       25809.8388    
 0.130000000      0.617796637E-23   1.00000000       21843.9113    
 0.140000000      0.117885189E-22   1.00000000       17877.9838    
 0.150000000      0.264697932E-22   1.00000000       13912.0563    
 0.160000000      0.781185402E-22   1.00000000       9946.12876    
 0.170000000      0.402976359E-21   1.00000000       5980.20124    
 0.180000000      0.275014087E-15   1.00000000       92.8325336    
 0.190000000      0.379833448E-12   1.00000000       9.86238432    
 0.200000000      0.109578594E-10   1.00000000       3.47715321    
 0.210000000      0.100345825E-09   1.00000000       1.74980968    
 0.220000000      0.524651062E-09  0.999999999       1.04767011    
 0.230000000      0.196560534E-08  0.999999998      0.695555400    
 0.240000000      0.590268165E-08  0.999999994      0.494558805    
 0.250000000      0.151409855E-07  0.999999985      0.369245639    
 0.260000000      0.345150367E-07  0.999999965      0.285949488    
 0.270000000      0.717875334E-07  0.999999928      0.227819701    
 0.280000000      0.138761630E-06  0.999999861      0.185669512    
 0.290000000      0.252625066E-06  0.999999747      0.154146792    
 0.300000000      0.437544623E-06  0.999999562      0.129963462    
 0.310000000      0.726529815E-06  0.999999273      0.111009748    
 0.320000000      0.116358547E-05  0.999998836      0.958819214E-01
 0.330000000      0.180617390E-05  0.999998194      0.836168616E-01
 0.340000000      0.272800864E-05  0.999997272      0.735360788E-01
 0.350000000      0.402220355E-05  0.999995978      0.651505176E-01
 0.360000000      0.580480298E-05  0.999994195      0.581005149E-01
 0.370000000      0.821872116E-05  0.999991781      0.521168281E-01
 0.380000000      0.114381218E-04  0.999988562      0.469946927E-01
 0.390000000      0.156732723E-04  0.999984327      0.425761595E-01
 0.400000000      0.211759104E-04  0.999978824      0.387378264E-01
 0.410000000      0.282451663E-04  0.999971755      0.353821607E-01
 0.420000000      0.372340874E-04  0.999962766      0.324312601E-01
 0.430000000      0.485568194E-04  0.999951443      0.298223001E-01
 0.440000000      0.626965031E-04  0.999937303      0.275041659E-01
 0.450000000      0.802139566E-04  0.999919786      0.254349308E-01
 0.460000000      0.101757217E-03  0.999898243      0.235799445E-01
 0.470000000      0.128072029E-03  0.999871928      0.219103700E-01
 0.480000000      0.160013383E-03  0.999839987      0.204020527E-01
 0.490000000      0.198558204E-03  0.999801442      0.190346372E-01
 0.500000000      0.244819334E-03  0.999755181      0.177908726E-01
 0.510000000      0.300060936E-03  0.999699939      0.166560616E-01
 0.520000000      0.365715504E-03  0.999634284      0.156176205E-01
 0.530000000      0.443402650E-03  0.999556597      0.146647241E-01
 0.540000000      0.534949909E-03  0.999465050      0.137880195E-01
 0.550000000      0.642415791E-03  0.999357584      0.129793918E-01
 0.560000000      0.768115395E-03  0.999231885      0.122317727E-01
 0.570000000      0.914648900E-03  0.999085351      0.115389822E-01
 0.580000000      0.108493335E-02  0.998915067      0.108955981E-01
 0.590000000      0.128223814E-02  0.998717762      0.102968464E-01
 0.600000000      0.151022487E-02  0.998489775      0.973851086E-02
 0.610000000      0.177299193E-02  0.998227008      0.921685588E-02
 0.620000000      0.207512491E-02  0.997924875      0.872856209E-02
 0.630000000      0.242175338E-02  0.997578247      0.827067148E-02
 0.640000000      0.281861526E-02  0.997181385      0.784054087E-02
 0.650000000      0.327212999E-02  0.996727870      0.743580210E-02
 0.660000000      0.378948192E-02  0.996210518      0.705432793E-02
 0.670000000      0.437871573E-02  0.995621284      0.669420273E-02
 0.680000000      0.504884601E-02  0.994951154      0.635369717E-02
 0.690000000      0.580998369E-02  0.994190016      0.603124632E-02
 0.700000000      0.667348231E-02  0.993326518      0.572543056E-02
 0.710000000      0.765210832E-02  0.992347892      0.543495902E-02
 0.720000000      0.876024002E-02  0.991239760      0.515865503E-02
 0.730000000      0.100141013E-01  0.989985899      0.489544331E-02
 0.740000000      0.114320377E-01  0.988567962      0.464433876E-02
 0.750000000      0.130348448E-01  0.986965155      0.440443643E-02
 0.760000000      0.148461599E-01  0.985153840      0.417490266E-02
 0.770000000      0.168929350E-01  0.983107065      0.395496707E-02
 0.780000000      0.192060089E-01  0.980793991      0.374391535E-02
 0.790000000      0.218208079E-01  0.978179192      0.354108274E-02
 0.800000000      0.247782085E-01  0.975221792      0.334584790E-02
 0.810000000      0.281256124E-01  0.971874388      0.315762731E-02
 0.820000000      0.319182978E-01  0.968081702      0.297586978E-02
 0.830000000      0.362211393E-01  0.963778861      0.280005119E-02
 0.840000000      0.411108229E-01  0.958889177      0.262966919E-02
 0.850000000      0.466787412E-01  0.953321259      0.246423762E-02
 0.860000000      0.530348367E-01  0.946965163      0.230328049E-02
 0.870000000      0.603127962E-01  0.939687204      0.214632517E-02
 0.880000000      0.686772134E-01  0.931322787      0.199289427E-02
 0.890000000      0.783337020E-01  0.921666298      0.184249546E-02
 0.900000000      0.895435622E-01  0.910456438      0.169460815E-02
 0.910000000      0.102645740      0.897354260      0.154866506E-02
 0.920000000      0.118090974      0.881909026      0.140402554E-02
 0.930000000      0.136497399      0.863502601      0.125993456E-02
 0.940000000      0.158746414      0.841253586      0.111545599E-02
 0.950000000      0.186160515      0.813839485      0.969355766E-03
 0.960000000      0.220866894      0.779133106      0.819877333E-03
 0.970000000      0.266649930      0.733350070      0.664252187E-03
 0.980000000      0.331418846      0.668581154      0.497407794E-03
 0.990000000      0.437722204      0.562277796      0.307158984E-03
  1.00000000       1.00000000       0.00000000       0.00000000 
