TITLE = "FEHM V3.00pgi64 10-10-28 QA:NA  10/28/2010  14:01:29"
variables = "Saturation" "Liquid" "Vapor" "Capillary pressure"
text X=50.0 Y=95.0 AN=center T="Relative permeability and Capillary pressure"
text X=50.0 Y=90.0 AN=center T="** Lysimeter 2m grid Case 4 = case3 with diff hydro props"
zone t = "model    2"
  0.00000000       0.00000000       1.00000000      0.100000000E-02
 0.100000000E-01  0.999009990E-02  0.990000000      0.990000000E-03
 0.200000000E-01  0.199901999E-01  0.980000000      0.980000000E-03
 0.300000000E-01  0.299902999E-01  0.970000000      0.970000000E-03
 0.400000000E-01  0.399903999E-01  0.960000000      0.960000000E-03
 0.500000000E-01  0.499904999E-01  0.950000000      0.950000000E-03
 0.600000000E-01  0.599905999E-01  0.940000000      0.940000000E-03
 0.700000000E-01  0.699906999E-01  0.930000000      0.930000000E-03
 0.800000000E-01  0.799907999E-01  0.920000000      0.920000000E-03
 0.900000000E-01  0.899908999E-01  0.910000000      0.910000000E-03
 0.100000000      0.999909999E-01  0.900000000      0.900000000E-03
 0.110000000      0.109991100      0.890000000      0.890000000E-03
 0.120000000      0.119991200      0.880000000      0.880000000E-03
 0.130000000      0.129991300      0.870000000      0.870000000E-03
 0.140000000      0.139991400      0.860000000      0.860000000E-03
 0.150000000      0.149991500      0.850000000      0.850000000E-03
 0.160000000      0.159991600      0.840000000      0.840000000E-03
 0.170000000      0.169991700      0.830000000      0.830000000E-03
 0.180000000      0.179991800      0.820000000      0.820000000E-03
 0.190000000      0.189991900      0.810000000      0.810000000E-03
 0.200000000      0.199992000      0.800000000      0.800000000E-03
 0.210000000      0.209992100      0.790000000      0.790000000E-03
 0.220000000      0.219992200      0.780000000      0.780000000E-03
 0.230000000      0.229992300      0.770000000      0.770000000E-03
 0.240000000      0.239992400      0.760000000      0.760000000E-03
 0.250000000      0.249992500      0.750000000      0.750000000E-03
 0.260000000      0.259992600      0.740000000      0.740000000E-03
 0.270000000      0.269992700      0.730000000      0.730000000E-03
 0.280000000      0.279992800      0.720000000      0.720000000E-03
 0.290000000      0.289992900      0.710000000      0.710000000E-03
 0.300000000      0.299993000      0.700000000      0.700000000E-03
 0.310000000      0.309993100      0.690000000      0.690000000E-03
 0.320000000      0.319993200      0.680000000      0.680000000E-03
 0.330000000      0.329993300      0.670000000      0.670000000E-03
 0.340000000      0.339993400      0.660000000      0.660000000E-03
 0.350000000      0.349993500      0.650000000      0.650000000E-03
 0.360000000      0.359993600      0.640000000      0.640000000E-03
 0.370000000      0.369993700      0.630000000      0.630000000E-03
 0.380000000      0.379993800      0.620000000      0.620000000E-03
 0.390000000      0.389993900      0.610000000      0.610000000E-03
 0.400000000      0.399994000      0.600000000      0.600000000E-03
 0.410000000      0.409994100      0.590000000      0.590000000E-03
 0.420000000      0.419994200      0.580000000      0.580000000E-03
 0.430000000      0.429994300      0.570000000      0.570000000E-03
 0.440000000      0.439994400      0.560000000      0.560000000E-03
 0.450000000      0.449994500      0.550000000      0.550000000E-03
 0.460000000      0.459994600      0.540000000      0.540000000E-03
 0.470000000      0.469994700      0.530000000      0.530000000E-03
 0.480000000      0.479994800      0.520000000      0.520000000E-03
 0.490000000      0.489994900      0.510000000      0.510000000E-03
 0.500000000      0.499995000      0.500000000      0.500000000E-03
 0.510000000      0.509995100      0.490000000      0.490000000E-03
 0.520000000      0.519995200      0.480000000      0.480000000E-03
 0.530000000      0.529995300      0.470000000      0.470000000E-03
 0.540000000      0.539995400      0.460000000      0.460000000E-03
 0.550000000      0.549995500      0.450000000      0.450000000E-03
 0.560000000      0.559995600      0.440000000      0.440000000E-03
 0.570000000      0.569995700      0.430000000      0.430000000E-03
 0.580000000      0.579995800      0.420000000      0.420000000E-03
 0.590000000      0.589995900      0.410000000      0.410000000E-03
 0.600000000      0.599996000      0.400000000      0.400000000E-03
 0.610000000      0.609996100      0.390000000      0.390000000E-03
 0.620000000      0.619996200      0.380000000      0.380000000E-03
 0.630000000      0.629996300      0.370000000      0.370000000E-03
 0.640000000      0.639996400      0.360000000      0.360000000E-03
 0.650000000      0.649996500      0.350000000      0.350000000E-03
 0.660000000      0.659996600      0.340000000      0.340000000E-03
 0.670000000      0.669996700      0.330000000      0.330000000E-03
 0.680000000      0.679996800      0.320000000      0.320000000E-03
 0.690000000      0.689996900      0.310000000      0.310000000E-03
 0.700000000      0.699997000      0.300000000      0.300000000E-03
 0.710000000      0.709997100      0.290000000      0.290000000E-03
 0.720000000      0.719997200      0.280000000      0.280000000E-03
 0.730000000      0.729997300      0.270000000      0.270000000E-03
 0.740000000      0.739997400      0.260000000      0.260000000E-03
 0.750000000      0.749997500      0.250000000      0.250000000E-03
 0.760000000      0.759997600      0.240000000      0.240000000E-03
 0.770000000      0.769997700      0.230000000      0.230000000E-03
 0.780000000      0.779997800      0.220000000      0.220000000E-03
 0.790000000      0.789997900      0.210000000      0.210000000E-03
 0.800000000      0.799998000      0.200000000      0.200000000E-03
 0.810000000      0.809998100      0.190000000      0.190000000E-03
 0.820000000      0.819998200      0.180000000      0.180000000E-03
 0.830000000      0.829998300      0.170000000      0.170000000E-03
 0.840000000      0.839998400      0.160000000      0.160000000E-03
 0.850000000      0.849998500      0.150000000      0.150000000E-03
 0.860000000      0.859998600      0.140000000      0.140000000E-03
 0.870000000      0.869998700      0.130000000      0.130000000E-03
 0.880000000      0.879998800      0.120000000      0.120000000E-03
 0.890000000      0.889998900      0.110000000      0.110000000E-03
 0.900000000      0.899999000      0.100000000E+00  0.100000000E-03
 0.910000000      0.909999100      0.900000000E-01  0.900000000E-04
 0.920000000      0.919999200      0.800000000E-01  0.800000000E-04
 0.930000000      0.929999300      0.700000000E-01  0.700000000E-04
 0.940000000      0.939999400      0.600000000E-01  0.600000000E-04
 0.950000000      0.949999500      0.500000000E-01  0.500000000E-04
 0.960000000      0.959999600      0.400000000E-01  0.400000000E-04
 0.970000000      0.969999700      0.300000000E-01  0.300000000E-04
 0.980000000      0.979999800      0.200000000E-01  0.200000000E-04
 0.990000000      0.989999900      0.100000000E-01  0.100000000E-04
  1.00000000       1.00000000       0.00000000       0.00000000    
